<?xml version="1.0"?>
<VTKFile type="StructuredGrid" version="0.1">
  <StructuredGrid WholeExtent="0 5 0 6 0 7">
    <Piece Extent="0 5 0 6 0 7">
      <Points>
        <DataArray type="Float32" format="ascii" NumberOfComponents="3">
           0.00000e+00  0.00000e+00  0.00000e+00
           6.00000e-01  0.00000e+00  0.00000e+00
           1.20000e+00  0.00000e+00  0.00000e+00
           1.80000e+00  0.00000e+00  0.00000e+00
           2.40000e+00  0.00000e+00  0.00000e+00
           3.00000e+00  0.00000e+00  0.00000e+00
           0.00000e+00  6.66667e-01  0.00000e+00
           6.00000e-01  6.66667e-01  0.00000e+00
           1.20000e+00  6.66667e-01  0.00000e+00
           1.80000e+00  6.66667e-01  0.00000e+00
           2.40000e+00  6.66667e-01  0.00000e+00
           3.00000e+00  6.66667e-01  0.00000e+00
           0.00000e+00  1.33333e+00  0.00000e+00
           6.00000e-01  1.33333e+00  0.00000e+00
           1.20000e+00  1.33333e+00  0.00000e+00
           1.80000e+00  1.33333e+00  0.00000e+00
           2.40000e+00  1.33333e+00  0.00000e+00
           3.00000e+00  1.33333e+00  0.00000e+00
           0.00000e+00  2.00000e+00  0.00000e+00
           6.00000e-01  2.00000e+00  0.00000e+00
           1.20000e+00  2.00000e+00  0.00000e+00
           1.80000e+00  2.00000e+00  0.00000e+00
           2.40000e+00  2.00000e+00  0.00000e+00
           3.00000e+00  2.00000e+00  0.00000e+00
           0.00000e+00  2.66667e+00  0.00000e+00
           6.00000e-01  2.66667e+00  0.00000e+00
           1.20000e+00  2.66667e+00  0.00000e+00
           1.80000e+00  2.66667e+00  0.00000e+00
           2.40000e+00  2.66667e+00  0.00000e+00
           3.00000e+00  2.66667e+00  0.00000e+00
           0.00000e+00  3.33333e+00  0.00000e+00
           6.00000e-01  3.33333e+00  0.00000e+00
           1.20000e+00  3.33333e+00  0.00000e+00
           1.80000e+00  3.33333e+00  0.00000e+00
           2.40000e+00  3.33333e+00  0.00000e+00
           3.00000e+00  3.33333e+00  0.00000e+00
           0.00000e+00  4.00000e+00  0.00000e+00
           6.00000e-01  4.00000e+00  0.00000e+00
           1.20000e+00  4.00000e+00  0.00000e+00
           1.80000e+00  4.00000e+00  0.00000e+00
           2.40000e+00  4.00000e+00  0.00000e+00
           3.00000e+00  4.00000e+00  0.00000e+00
           0.00000e+00  0.00000e+00  7.14286e-01
           6.00000e-01  0.00000e+00  7.14286e-01
           1.20000e+00  0.00000e+00  7.14286e-01
           1.80000e+00  0.00000e+00  7.14286e-01
           2.40000e+00  0.00000e+00  7.14286e-01
           3.00000e+00  0.00000e+00  7.14286e-01
           0.00000e+00  6.66667e-01  7.14286e-01
           6.00000e-01  6.66667e-01  7.14286e-01
           1.20000e+00  6.66667e-01  7.14286e-01
           1.80000e+00  6.66667e-01  7.14286e-01
           2.40000e+00  6.66667e-01  7.14286e-01
           3.00000e+00  6.66667e-01  7.14286e-01
           0.00000e+00  1.33333e+00  7.14286e-01
           6.00000e-01  1.33333e+00  7.14286e-01
           1.20000e+00  1.33333e+00  7.14286e-01
           1.80000e+00  1.33333e+00  7.14286e-01
           2.40000e+00  1.33333e+00  7.14286e-01
           3.00000e+00  1.33333e+00  7.14286e-01
           0.00000e+00  2.00000e+00  7.14286e-01
           6.00000e-01  2.00000e+00  7.14286e-01
           1.20000e+00  2.00000e+00  7.14286e-01
           1.80000e+00  2.00000e+00  7.14286e-01
           2.40000e+00  2.00000e+00  7.14286e-01
           3.00000e+00  2.00000e+00  7.14286e-01
           0.00000e+00  2.66667e+00  7.14286e-01
           6.00000e-01  2.66667e+00  7.14286e-01
           1.20000e+00  2.66667e+00  7.14286e-01
           1.80000e+00  2.66667e+00  7.14286e-01
           2.40000e+00  2.66667e+00  7.14286e-01
           3.00000e+00  2.66667e+00  7.14286e-01
           0.00000e+00  3.33333e+00  7.14286e-01
           6.00000e-01  3.33333e+00  7.14286e-01
           1.20000e+00  3.33333e+00  7.14286e-01
           1.80000e+00  3.33333e+00  7.14286e-01
           2.40000e+00  3.33333e+00  7.14286e-01
           3.00000e+00  3.33333e+00  7.14286e-01
           0.00000e+00  4.00000e+00  7.14286e-01
           6.00000e-01  4.00000e+00  7.14286e-01
           1.20000e+00  4.00000e+00  7.14286e-01
           1.80000e+00  4.00000e+00  7.14286e-01
           2.40000e+00  4.00000e+00  7.14286e-01
           3.00000e+00  4.00000e+00  7.14286e-01
           0.00000e+00  0.00000e+00  1.42857e+00
           6.00000e-01  0.00000e+00  1.42857e+00
           1.20000e+00  0.00000e+00  1.42857e+00
           1.80000e+00  0.00000e+00  1.42857e+00
           2.40000e+00  0.00000e+00  1.42857e+00
           3.00000e+00  0.00000e+00  1.42857e+00
           0.00000e+00  6.66667e-01  1.42857e+00
           6.00000e-01  6.66667e-01  1.42857e+00
           1.20000e+00  6.66667e-01  1.42857e+00
           1.80000e+00  6.66667e-01  1.42857e+00
           2.40000e+00  6.66667e-01  1.42857e+00
           3.00000e+00  6.66667e-01  1.42857e+00
           0.00000e+00  1.33333e+00  1.42857e+00
           6.00000e-01  1.33333e+00  1.42857e+00
           1.20000e+00  1.33333e+00  1.42857e+00
           1.80000e+00  1.33333e+00  1.42857e+00
           2.40000e+00  1.33333e+00  1.42857e+00
           3.00000e+00  1.33333e+00  1.42857e+00
           0.00000e+00  2.00000e+00  1.42857e+00
           6.00000e-01  2.00000e+00  1.42857e+00
           1.20000e+00  2.00000e+00  1.42857e+00
           1.80000e+00  2.00000e+00  1.42857e+00
           2.40000e+00  2.00000e+00  1.42857e+00
           3.00000e+00  2.00000e+00  1.42857e+00
           0.00000e+00  2.66667e+00  1.42857e+00
           6.00000e-01  2.66667e+00  1.42857e+00
           1.20000e+00  2.66667e+00  1.42857e+00
           1.80000e+00  2.66667e+00  1.42857e+00
           2.40000e+00  2.66667e+00  1.42857e+00
           3.00000e+00  2.66667e+00  1.42857e+00
           0.00000e+00  3.33333e+00  1.42857e+00
           6.00000e-01  3.33333e+00  1.42857e+00
           1.20000e+00  3.33333e+00  1.42857e+00
           1.80000e+00  3.33333e+00  1.42857e+00
           2.40000e+00  3.33333e+00  1.42857e+00
           3.00000e+00  3.33333e+00  1.42857e+00
           0.00000e+00  4.00000e+00  1.42857e+00
           6.00000e-01  4.00000e+00  1.42857e+00
           1.20000e+00  4.00000e+00  1.42857e+00
           1.80000e+00  4.00000e+00  1.42857e+00
           2.40000e+00  4.00000e+00  1.42857e+00
           3.00000e+00  4.00000e+00  1.42857e+00
           0.00000e+00  0.00000e+00  2.14286e+00
           6.00000e-01  0.00000e+00  2.14286e+00
           1.20000e+00  0.00000e+00  2.14286e+00
           1.80000e+00  0.00000e+00  2.14286e+00
           2.40000e+00  0.00000e+00  2.14286e+00
           3.00000e+00  0.00000e+00  2.14286e+00
           0.00000e+00  6.66667e-01  2.14286e+00
           6.00000e-01  6.66667e-01  2.14286e+00
           1.20000e+00  6.66667e-01  2.14286e+00
           1.80000e+00  6.66667e-01  2.14286e+00
           2.40000e+00  6.66667e-01  2.14286e+00
           3.00000e+00  6.66667e-01  2.14286e+00
           0.00000e+00  1.33333e+00  2.14286e+00
           6.00000e-01  1.33333e+00  2.14286e+00
           1.20000e+00  1.33333e+00  2.14286e+00
           1.80000e+00  1.33333e+00  2.14286e+00
           2.40000e+00  1.33333e+00  2.14286e+00
           3.00000e+00  1.33333e+00  2.14286e+00
           0.00000e+00  2.00000e+00  2.14286e+00
           6.00000e-01  2.00000e+00  2.14286e+00
           1.20000e+00  2.00000e+00  2.14286e+00
           1.80000e+00  2.00000e+00  2.14286e+00
           2.40000e+00  2.00000e+00  2.14286e+00
           3.00000e+00  2.00000e+00  2.14286e+00
           0.00000e+00  2.66667e+00  2.14286e+00
           6.00000e-01  2.66667e+00  2.14286e+00
           1.20000e+00  2.66667e+00  2.14286e+00
           1.80000e+00  2.66667e+00  2.14286e+00
           2.40000e+00  2.66667e+00  2.14286e+00
           3.00000e+00  2.66667e+00  2.14286e+00
           0.00000e+00  3.33333e+00  2.14286e+00
           6.00000e-01  3.33333e+00  2.14286e+00
           1.20000e+00  3.33333e+00  2.14286e+00
           1.80000e+00  3.33333e+00  2.14286e+00
           2.40000e+00  3.33333e+00  2.14286e+00
           3.00000e+00  3.33333e+00  2.14286e+00
           0.00000e+00  4.00000e+00  2.14286e+00
           6.00000e-01  4.00000e+00  2.14286e+00
           1.20000e+00  4.00000e+00  2.14286e+00
           1.80000e+00  4.00000e+00  2.14286e+00
           2.40000e+00  4.00000e+00  2.14286e+00
           3.00000e+00  4.00000e+00  2.14286e+00
           0.00000e+00  0.00000e+00  2.85714e+00
           6.00000e-01  0.00000e+00  2.85714e+00
           1.20000e+00  0.00000e+00  2.85714e+00
           1.80000e+00  0.00000e+00  2.85714e+00
           2.40000e+00  0.00000e+00  2.85714e+00
           3.00000e+00  0.00000e+00  2.85714e+00
           0.00000e+00  6.66667e-01  2.85714e+00
           6.00000e-01  6.66667e-01  2.85714e+00
           1.20000e+00  6.66667e-01  2.85714e+00
           1.80000e+00  6.66667e-01  2.85714e+00
           2.40000e+00  6.66667e-01  2.85714e+00
           3.00000e+00  6.66667e-01  2.85714e+00
           0.00000e+00  1.33333e+00  2.85714e+00
           6.00000e-01  1.33333e+00  2.85714e+00
           1.20000e+00  1.33333e+00  2.85714e+00
           1.80000e+00  1.33333e+00  2.85714e+00
           2.40000e+00  1.33333e+00  2.85714e+00
           3.00000e+00  1.33333e+00  2.85714e+00
           0.00000e+00  2.00000e+00  2.85714e+00
           6.00000e-01  2.00000e+00  2.85714e+00
           1.20000e+00  2.00000e+00  2.85714e+00
           1.80000e+00  2.00000e+00  2.85714e+00
           2.40000e+00  2.00000e+00  2.85714e+00
           3.00000e+00  2.00000e+00  2.85714e+00
           0.00000e+00  2.66667e+00  2.85714e+00
           6.00000e-01  2.66667e+00  2.85714e+00
           1.20000e+00  2.66667e+00  2.85714e+00
           1.80000e+00  2.66667e+00  2.85714e+00
           2.40000e+00  2.66667e+00  2.85714e+00
           3.00000e+00  2.66667e+00  2.85714e+00
           0.00000e+00  3.33333e+00  2.85714e+00
           6.00000e-01  3.33333e+00  2.85714e+00
           1.20000e+00  3.33333e+00  2.85714e+00
           1.80000e+00  3.33333e+00  2.85714e+00
           2.40000e+00  3.33333e+00  2.85714e+00
           3.00000e+00  3.33333e+00  2.85714e+00
           0.00000e+00  4.00000e+00  2.85714e+00
           6.00000e-01  4.00000e+00  2.85714e+00
           1.20000e+00  4.00000e+00  2.85714e+00
           1.80000e+00  4.00000e+00  2.85714e+00
           2.40000e+00  4.00000e+00  2.85714e+00
           3.00000e+00  4.00000e+00  2.85714e+00
           0.00000e+00  0.00000e+00  3.57143e+00
           6.00000e-01  0.00000e+00  3.57143e+00
           1.20000e+00  0.00000e+00  3.57143e+00
           1.80000e+00  0.00000e+00  3.57143e+00
           2.40000e+00  0.00000e+00  3.57143e+00
           3.00000e+00  0.00000e+00  3.57143e+00
           0.00000e+00  6.66667e-01  3.57143e+00
           6.00000e-01  6.66667e-01  3.57143e+00
           1.20000e+00  6.66667e-01  3.57143e+00
           1.80000e+00  6.66667e-01  3.57143e+00
           2.40000e+00  6.66667e-01  3.57143e+00
           3.00000e+00  6.66667e-01  3.57143e+00
           0.00000e+00  1.33333e+00  3.57143e+00
           6.00000e-01  1.33333e+00  3.57143e+00
           1.20000e+00  1.33333e+00  3.57143e+00
           1.80000e+00  1.33333e+00  3.57143e+00
           2.40000e+00  1.33333e+00  3.57143e+00
           3.00000e+00  1.33333e+00  3.57143e+00
           0.00000e+00  2.00000e+00  3.57143e+00
           6.00000e-01  2.00000e+00  3.57143e+00
           1.20000e+00  2.00000e+00  3.57143e+00
           1.80000e+00  2.00000e+00  3.57143e+00
           2.40000e+00  2.00000e+00  3.57143e+00
           3.00000e+00  2.00000e+00  3.57143e+00
           0.00000e+00  2.66667e+00  3.57143e+00
           6.00000e-01  2.66667e+00  3.57143e+00
           1.20000e+00  2.66667e+00  3.57143e+00
           1.80000e+00  2.66667e+00  3.57143e+00
           2.40000e+00  2.66667e+00  3.57143e+00
           3.00000e+00  2.66667e+00  3.57143e+00
           0.00000e+00  3.33333e+00  3.57143e+00
           6.00000e-01  3.33333e+00  3.57143e+00
           1.20000e+00  3.33333e+00  3.57143e+00
           1.80000e+00  3.33333e+00  3.57143e+00
           2.40000e+00  3.33333e+00  3.57143e+00
           3.00000e+00  3.33333e+00  3.57143e+00
           0.00000e+00  4.00000e+00  3.57143e+00
           6.00000e-01  4.00000e+00  3.57143e+00
           1.20000e+00  4.00000e+00  3.57143e+00
           1.80000e+00  4.00000e+00  3.57143e+00
           2.40000e+00  4.00000e+00  3.57143e+00
           3.00000e+00  4.00000e+00  3.57143e+00
           0.00000e+00  0.00000e+00  4.28571e+00
           6.00000e-01  0.00000e+00  4.28571e+00
           1.20000e+00  0.00000e+00  4.28571e+00
           1.80000e+00  0.00000e+00  4.28571e+00
           2.40000e+00  0.00000e+00  4.28571e+00
           3.00000e+00  0.00000e+00  4.28571e+00
           0.00000e+00  6.66667e-01  4.28571e+00
           6.00000e-01  6.66667e-01  4.28571e+00
           1.20000e+00  6.66667e-01  4.28571e+00
           1.80000e+00  6.66667e-01  4.28571e+00
           2.40000e+00  6.66667e-01  4.28571e+00
           3.00000e+00  6.66667e-01  4.28571e+00
           0.00000e+00  1.33333e+00  4.28571e+00
           6.00000e-01  1.33333e+00  4.28571e+00
           1.20000e+00  1.33333e+00  4.28571e+00
           1.80000e+00  1.33333e+00  4.28571e+00
           2.40000e+00  1.33333e+00  4.28571e+00
           3.00000e+00  1.33333e+00  4.28571e+00
           0.00000e+00  2.00000e+00  4.28571e+00
           6.00000e-01  2.00000e+00  4.28571e+00
           1.20000e+00  2.00000e+00  4.28571e+00
           1.80000e+00  2.00000e+00  4.28571e+00
           2.40000e+00  2.00000e+00  4.28571e+00
           3.00000e+00  2.00000e+00  4.28571e+00
           0.00000e+00  2.66667e+00  4.28571e+00
           6.00000e-01  2.66667e+00  4.28571e+00
           1.20000e+00  2.66667e+00  4.28571e+00
           1.80000e+00  2.66667e+00  4.28571e+00
           2.40000e+00  2.66667e+00  4.28571e+00
           3.00000e+00  2.66667e+00  4.28571e+00
           0.00000e+00  3.33333e+00  4.28571e+00
           6.00000e-01  3.33333e+00  4.28571e+00
           1.20000e+00  3.33333e+00  4.28571e+00
           1.80000e+00  3.33333e+00  4.28571e+00
           2.40000e+00  3.33333e+00  4.28571e+00
           3.00000e+00  3.33333e+00  4.28571e+00
           0.00000e+00  4.00000e+00  4.28571e+00
           6.00000e-01  4.00000e+00  4.28571e+00
           1.20000e+00  4.00000e+00  4.28571e+00
           1.80000e+00  4.00000e+00  4.28571e+00
           2.40000e+00  4.00000e+00  4.28571e+00
           3.00000e+00  4.00000e+00  4.28571e+00
           0.00000e+00  0.00000e+00  5.00000e+00
           6.00000e-01  0.00000e+00  5.00000e+00
           1.20000e+00  0.00000e+00  5.00000e+00
           1.80000e+00  0.00000e+00  5.00000e+00
           2.40000e+00  0.00000e+00  5.00000e+00
           3.00000e+00  0.00000e+00  5.00000e+00
           0.00000e+00  6.66667e-01  5.00000e+00
           6.00000e-01  6.66667e-01  5.00000e+00
           1.20000e+00  6.66667e-01  5.00000e+00
           1.80000e+00  6.66667e-01  5.00000e+00
           2.40000e+00  6.66667e-01  5.00000e+00
           3.00000e+00  6.66667e-01  5.00000e+00
           0.00000e+00  1.33333e+00  5.00000e+00
           6.00000e-01  1.33333e+00  5.00000e+00
           1.20000e+00  1.33333e+00  5.00000e+00
           1.80000e+00  1.33333e+00  5.00000e+00
           2.40000e+00  1.33333e+00  5.00000e+00
           3.00000e+00  1.33333e+00  5.00000e+00
           0.00000e+00  2.00000e+00  5.00000e+00
           6.00000e-01  2.00000e+00  5.00000e+00
           1.20000e+00  2.00000e+00  5.00000e+00
           1.80000e+00  2.00000e+00  5.00000e+00
           2.40000e+00  2.00000e+00  5.00000e+00
           3.00000e+00  2.00000e+00  5.00000e+00
           0.00000e+00  2.66667e+00  5.00000e+00
           6.00000e-01  2.66667e+00  5.00000e+00
           1.20000e+00  2.66667e+00  5.00000e+00
           1.80000e+00  2.66667e+00  5.00000e+00
           2.40000e+00  2.66667e+00  5.00000e+00
           3.00000e+00  2.66667e+00  5.00000e+00
           0.00000e+00  3.33333e+00  5.00000e+00
           6.00000e-01  3.33333e+00  5.00000e+00
           1.20000e+00  3.33333e+00  5.00000e+00
           1.80000e+00  3.33333e+00  5.00000e+00
           2.40000e+00  3.33333e+00  5.00000e+00
           3.00000e+00  3.33333e+00  5.00000e+00
           0.00000e+00  4.00000e+00  5.00000e+00
           6.00000e-01  4.00000e+00  5.00000e+00
           1.20000e+00  4.00000e+00  5.00000e+00
           1.80000e+00  4.00000e+00  5.00000e+00
           2.40000e+00  4.00000e+00  5.00000e+00
           3.00000e+00  4.00000e+00  5.00000e+00
        </DataArray>
      </Points>
      <CellData Scalars="cell_scalars">
        <DataArray type="Int32" Name="material_dominant" format="ascii">
                     2           3           4           4           4
                     2           3           4           4           4
                     2           3           4           4           4
                     2           3           4           4           4
                     2           3           4           4           4
                     2           3           4           4           4

                     2           3           4           4           4
                     2           3           4           4           4
                     2           3           4           4           4
                     2           3           4           4           4
                     2           3           4           4           4
                     2           3           4           4           4

                     2           3           4           4           4
                     2           3           4           4           4
                     2           3           4           4           4
                     2           3           4           4           4
                     2           3           4           4           4
                     2           3           4           4           4

                     2           3           4           4           4
                     2           3           4           4           4
                     2           3           4           4           4
                     2           3           4           4           4
                     2           3           4           4           4
                     2           3           4           4           4

                     2           3           4           4           4
                     2           3           4           4           4
                     2           3           4           4           4
                     2           3           4           4           4
                     2           3           4           4           4
                     2           3           4           4           4

                     2           3           4           4           4
                     2           3           4           4           4
                     2           3           4           4           4
                     2           3           4           4           4
                     2           3           4           4           4
                     2           3           4           4           4

                     2           3           4           4           2
                     2           3           4           4           2
                     2           3           4           4           2
                     2           3           4           4           2
                     2           3           4           4           2
                     2           3           4           4           2
        </DataArray>
        <DataArray type="Float32" Name="density_dominant" format="ascii">
           9.00000e+00 1.00000e+01 1.10000e+01 1.10000e+01 1.10000e+01
           9.00000e+00 1.00000e+01 1.10000e+01 1.10000e+01 1.10000e+01
           9.00000e+00 1.00000e+01 1.10000e+01 1.10000e+01 1.10000e+01
           9.00000e+00 1.00000e+01 1.10000e+01 1.10000e+01 1.10000e+01
           9.00000e+00 1.00000e+01 1.10000e+01 1.10000e+01 1.10000e+01
           9.00000e+00 1.00000e+01 1.10000e+01 1.10000e+01 1.10000e+01

           9.00000e+00 1.00000e+01 1.10000e+01 1.10000e+01 1.10000e+01
           9.00000e+00 1.00000e+01 1.10000e+01 1.10000e+01 1.10000e+01
           9.00000e+00 1.00000e+01 1.10000e+01 1.10000e+01 1.10000e+01
           9.00000e+00 1.00000e+01 1.10000e+01 1.10000e+01 1.10000e+01
           9.00000e+00 1.00000e+01 1.10000e+01 1.10000e+01 1.10000e+01
           9.00000e+00 1.00000e+01 1.10000e+01 1.10000e+01 1.10000e+01

           9.00000e+00 1.00000e+01 1.10000e+01 1.10000e+01 1.10000e+01
           9.00000e+00 1.00000e+01 1.10000e+01 1.10000e+01 1.10000e+01
           9.00000e+00 1.00000e+01 1.10000e+01 1.10000e+01 1.10000e+01
           9.00000e+00 1.00000e+01 1.10000e+01 1.10000e+01 1.10000e+01
           9.00000e+00 1.00000e+01 1.10000e+01 1.10000e+01 1.10000e+01
           9.00000e+00 1.00000e+01 1.10000e+01 1.10000e+01 1.10000e+01

           9.00000e+00 1.00000e+01 1.10000e+01 1.10000e+01 1.10000e+01
           9.00000e+00 1.00000e+01 1.10000e+01 1.10000e+01 1.10000e+01
           9.00000e+00 1.00000e+01 1.10000e+01 1.10000e+01 1.10000e+01
           9.00000e+00 1.00000e+01 1.10000e+01 1.10000e+01 1.10000e+01
           9.00000e+00 1.00000e+01 1.10000e+01 1.10000e+01 1.10000e+01
           9.00000e+00 1.00000e+01 1.10000e+01 1.10000e+01 1.10000e+01

           9.00000e+00 1.00000e+01 1.10000e+01 1.10000e+01 1.10000e+01
           9.00000e+00 1.00000e+01 1.10000e+01 1.10000e+01 1.10000e+01
           9.00000e+00 1.00000e+01 1.10000e+01 1.10000e+01 1.10000e+01
           9.00000e+00 1.00000e+01 1.10000e+01 1.10000e+01 1.10000e+01
           9.00000e+00 1.00000e+01 1.10000e+01 1.10000e+01 1.10000e+01
           9.00000e+00 1.00000e+01 1.10000e+01 1.10000e+01 1.10000e+01

           9.00000e+00 1.00000e+01 1.10000e+01 1.10000e+01 1.10000e+01
           9.00000e+00 1.00000e+01 1.10000e+01 1.10000e+01 1.10000e+01
           9.00000e+00 1.00000e+01 1.10000e+01 1.10000e+01 1.10000e+01
           9.00000e+00 1.00000e+01 1.10000e+01 1.10000e+01 1.10000e+01
           9.00000e+00 1.00000e+01 1.10000e+01 1.10000e+01 1.10000e+01
           9.00000e+00 1.00000e+01 1.10000e+01 1.10000e+01 1.10000e+01

           9.00000e+00 1.00000e+01 1.10000e+01 1.10000e+01 9.00000e+00
           9.00000e+00 1.00000e+01 1.10000e+01 1.10000e+01 9.00000e+00
           9.00000e+00 1.00000e+01 1.10000e+01 1.10000e+01 9.00000e+00
           9.00000e+00 1.00000e+01 1.10000e+01 1.10000e+01 9.00000e+00
           9.00000e+00 1.00000e+01 1.10000e+01 1.10000e+01 9.00000e+00
           9.00000e+00 1.00000e+01 1.10000e+01 1.10000e+01 9.00000e+00
        </DataArray>
      </CellData>
    </Piece>
  </StructuredGrid>
</VTKFile>
