<?xml version="1.0"?>
<VTKFile type="StructuredGrid" version="0.1">
  <StructuredGrid WholeExtent="0 5 0 6 0 1">
    <Piece Extent="0 5 0 6 0 1">
      <Points>
        <DataArray type="Float32" format="ascii" NumberOfComponents="3">
           0.00000e+00 -5.00000e+00 -5.00000e-01
           2.00000e+00 -5.00000e+00 -5.00000e-01
           4.00000e+00 -5.00000e+00 -5.00000e-01
           6.00000e+00 -5.00000e+00 -5.00000e-01
           8.00000e+00 -5.00000e+00 -5.00000e-01
           1.00000e+01 -5.00000e+00 -5.00000e-01
           0.00000e+00 -3.33333e+00 -5.00000e-01
           2.00000e+00 -3.33333e+00 -5.00000e-01
           4.00000e+00 -3.33333e+00 -5.00000e-01
           6.00000e+00 -3.33333e+00 -5.00000e-01
           8.00000e+00 -3.33333e+00 -5.00000e-01
           1.00000e+01 -3.33333e+00 -5.00000e-01
           0.00000e+00 -1.66667e+00 -5.00000e-01
           2.00000e+00 -1.66667e+00 -5.00000e-01
           4.00000e+00 -1.66667e+00 -5.00000e-01
           6.00000e+00 -1.66667e+00 -5.00000e-01
           8.00000e+00 -1.66667e+00 -5.00000e-01
           1.00000e+01 -1.66667e+00 -5.00000e-01
           0.00000e+00  0.00000e+00 -5.00000e-01
           2.00000e+00  0.00000e+00 -5.00000e-01
           4.00000e+00  0.00000e+00 -5.00000e-01
           6.00000e+00  0.00000e+00 -5.00000e-01
           8.00000e+00  0.00000e+00 -5.00000e-01
           1.00000e+01  0.00000e+00 -5.00000e-01
           0.00000e+00  1.66667e+00 -5.00000e-01
           2.00000e+00  1.66667e+00 -5.00000e-01
           4.00000e+00  1.66667e+00 -5.00000e-01
           6.00000e+00  1.66667e+00 -5.00000e-01
           8.00000e+00  1.66667e+00 -5.00000e-01
           1.00000e+01  1.66667e+00 -5.00000e-01
           0.00000e+00  3.33333e+00 -5.00000e-01
           2.00000e+00  3.33333e+00 -5.00000e-01
           4.00000e+00  3.33333e+00 -5.00000e-01
           6.00000e+00  3.33333e+00 -5.00000e-01
           8.00000e+00  3.33333e+00 -5.00000e-01
           1.00000e+01  3.33333e+00 -5.00000e-01
           0.00000e+00  5.00000e+00 -5.00000e-01
           2.00000e+00  5.00000e+00 -5.00000e-01
           4.00000e+00  5.00000e+00 -5.00000e-01
           6.00000e+00  5.00000e+00 -5.00000e-01
           8.00000e+00  5.00000e+00 -5.00000e-01
           1.00000e+01  5.00000e+00 -5.00000e-01
           0.00000e+00 -5.00000e+00  5.00000e-01
           2.00000e+00 -5.00000e+00  5.00000e-01
           4.00000e+00 -5.00000e+00  5.00000e-01
           6.00000e+00 -5.00000e+00  5.00000e-01
           8.00000e+00 -5.00000e+00  5.00000e-01
           1.00000e+01 -5.00000e+00  5.00000e-01
           0.00000e+00 -3.33333e+00  5.00000e-01
           2.00000e+00 -3.33333e+00  5.00000e-01
           4.00000e+00 -3.33333e+00  5.00000e-01
           6.00000e+00 -3.33333e+00  5.00000e-01
           8.00000e+00 -3.33333e+00  5.00000e-01
           1.00000e+01 -3.33333e+00  5.00000e-01
           0.00000e+00 -1.66667e+00  5.00000e-01
           2.00000e+00 -1.66667e+00  5.00000e-01
           4.00000e+00 -1.66667e+00  5.00000e-01
           6.00000e+00 -1.66667e+00  5.00000e-01
           8.00000e+00 -1.66667e+00  5.00000e-01
           1.00000e+01 -1.66667e+00  5.00000e-01
           0.00000e+00  0.00000e+00  5.00000e-01
           2.00000e+00  0.00000e+00  5.00000e-01
           4.00000e+00  0.00000e+00  5.00000e-01
           6.00000e+00  0.00000e+00  5.00000e-01
           8.00000e+00  0.00000e+00  5.00000e-01
           1.00000e+01  0.00000e+00  5.00000e-01
           0.00000e+00  1.66667e+00  5.00000e-01
           2.00000e+00  1.66667e+00  5.00000e-01
           4.00000e+00  1.66667e+00  5.00000e-01
           6.00000e+00  1.66667e+00  5.00000e-01
           8.00000e+00  1.66667e+00  5.00000e-01
           1.00000e+01  1.66667e+00  5.00000e-01
           0.00000e+00  3.33333e+00  5.00000e-01
           2.00000e+00  3.33333e+00  5.00000e-01
           4.00000e+00  3.33333e+00  5.00000e-01
           6.00000e+00  3.33333e+00  5.00000e-01
           8.00000e+00  3.33333e+00  5.00000e-01
           1.00000e+01  3.33333e+00  5.00000e-01
           0.00000e+00  5.00000e+00  5.00000e-01
           2.00000e+00  5.00000e+00  5.00000e-01
           4.00000e+00  5.00000e+00  5.00000e-01
           6.00000e+00  5.00000e+00  5.00000e-01
           8.00000e+00  5.00000e+00  5.00000e-01
           1.00000e+01  5.00000e+00  5.00000e-01
        </DataArray>
      </Points>
      <CellData Scalars="cell_scalars">
        <DataArray type="Int32" Name="material_dominant" format="ascii">
                     2           2           2           2           2
                     2           2           2           2           2
                     3           3           3           3           3
                     3           3           3           3           3
                     4           4           4           4           4
                     4           4           4           4           4
        </DataArray>
        <DataArray type="Float32" Name="density_dominant" format="ascii">
           9.00000e+00 9.00000e+00 9.00000e+00 9.00000e+00 9.00000e+00
           9.00000e+00 9.00000e+00 9.00000e+00 9.00000e+00 9.00000e+00
           1.00000e+01 1.00000e+01 1.00000e+01 1.00000e+01 1.00000e+01
           1.00000e+01 1.00000e+01 1.00000e+01 1.00000e+01 1.00000e+01
           1.10000e+01 1.10000e+01 1.10000e+01 1.10000e+01 1.10000e+01
           1.10000e+01 1.10000e+01 1.10000e+01 1.10000e+01 1.10000e+01
        </DataArray>
      </CellData>
    </Piece>
  </StructuredGrid>
</VTKFile>
