<?xml version="1.0"?>
<VTKFile type="StructuredGrid" version="0.1">
  <StructuredGrid WholeExtent="0 5 0 6 0 7">
    <Piece Extent="0 5 0 6 0 7">
      <Points>
        <DataArray type="Float32" format="ascii" NumberOfComponents="3">
           0.00000e+00  0.00000e+00 -5.00000e+00
           2.00000e+00  0.00000e+00 -5.00000e+00
           4.00000e+00  0.00000e+00 -5.00000e+00
           6.00000e+00  0.00000e+00 -5.00000e+00
           8.00000e+00  0.00000e+00 -5.00000e+00
           1.00000e+01  0.00000e+00 -5.00000e+00
           0.00000e+00  0.00000e+00 -3.33333e+00
           2.00000e+00  0.00000e+00 -3.33333e+00
           4.00000e+00  0.00000e+00 -3.33333e+00
           6.00000e+00  0.00000e+00 -3.33333e+00
           8.00000e+00  0.00000e+00 -3.33333e+00
           1.00000e+01  0.00000e+00 -3.33333e+00
           0.00000e+00  0.00000e+00 -1.66667e+00
           2.00000e+00  0.00000e+00 -1.66667e+00
           4.00000e+00  0.00000e+00 -1.66667e+00
           6.00000e+00  0.00000e+00 -1.66667e+00
           8.00000e+00  0.00000e+00 -1.66667e+00
           1.00000e+01  0.00000e+00 -1.66667e+00
           0.00000e+00  0.00000e+00  0.00000e+00
           2.00000e+00  0.00000e+00  0.00000e+00
           4.00000e+00  0.00000e+00  0.00000e+00
           6.00000e+00  0.00000e+00  0.00000e+00
           8.00000e+00  0.00000e+00  0.00000e+00
           1.00000e+01  0.00000e+00  0.00000e+00
           0.00000e+00  0.00000e+00  1.66667e+00
           2.00000e+00  0.00000e+00  1.66667e+00
           4.00000e+00  0.00000e+00  1.66667e+00
           6.00000e+00  0.00000e+00  1.66667e+00
           8.00000e+00  0.00000e+00  1.66667e+00
           1.00000e+01  0.00000e+00  1.66667e+00
           0.00000e+00  0.00000e+00  3.33333e+00
           2.00000e+00  0.00000e+00  3.33333e+00
           4.00000e+00  0.00000e+00  3.33333e+00
           6.00000e+00  0.00000e+00  3.33333e+00
           8.00000e+00  0.00000e+00  3.33333e+00
           1.00000e+01  0.00000e+00  3.33333e+00
           0.00000e+00  0.00000e+00  5.00000e+00
           2.00000e+00  0.00000e+00  5.00000e+00
           4.00000e+00  0.00000e+00  5.00000e+00
           6.00000e+00  0.00000e+00  5.00000e+00
           8.00000e+00  0.00000e+00  5.00000e+00
           1.00000e+01  0.00000e+00  5.00000e+00
           0.00000e+00  0.00000e+00 -5.00000e+00
           1.80194e+00  8.67767e-01 -5.00000e+00
           3.60388e+00  1.73553e+00 -5.00000e+00
           5.40581e+00  2.60330e+00 -5.00000e+00
           7.20775e+00  3.47107e+00 -5.00000e+00
           9.00969e+00  4.33884e+00 -5.00000e+00
           0.00000e+00  0.00000e+00 -3.33333e+00
           1.80194e+00  8.67767e-01 -3.33333e+00
           3.60388e+00  1.73553e+00 -3.33333e+00
           5.40581e+00  2.60330e+00 -3.33333e+00
           7.20775e+00  3.47107e+00 -3.33333e+00
           9.00969e+00  4.33884e+00 -3.33333e+00
           0.00000e+00  0.00000e+00 -1.66667e+00
           1.80194e+00  8.67767e-01 -1.66667e+00
           3.60388e+00  1.73553e+00 -1.66667e+00
           5.40581e+00  2.60330e+00 -1.66667e+00
           7.20775e+00  3.47107e+00 -1.66667e+00
           9.00969e+00  4.33884e+00 -1.66667e+00
           0.00000e+00  0.00000e+00  0.00000e+00
           1.80194e+00  8.67767e-01  0.00000e+00
           3.60388e+00  1.73553e+00  0.00000e+00
           5.40581e+00  2.60330e+00  0.00000e+00
           7.20775e+00  3.47107e+00  0.00000e+00
           9.00969e+00  4.33884e+00  0.00000e+00
           0.00000e+00  0.00000e+00  1.66667e+00
           1.80194e+00  8.67767e-01  1.66667e+00
           3.60388e+00  1.73553e+00  1.66667e+00
           5.40581e+00  2.60330e+00  1.66667e+00
           7.20775e+00  3.47107e+00  1.66667e+00
           9.00969e+00  4.33884e+00  1.66667e+00
           0.00000e+00  0.00000e+00  3.33333e+00
           1.80194e+00  8.67767e-01  3.33333e+00
           3.60388e+00  1.73553e+00  3.33333e+00
           5.40581e+00  2.60330e+00  3.33333e+00
           7.20775e+00  3.47107e+00  3.33333e+00
           9.00969e+00  4.33884e+00  3.33333e+00
           0.00000e+00  0.00000e+00  5.00000e+00
           1.80194e+00  8.67767e-01  5.00000e+00
           3.60388e+00  1.73553e+00  5.00000e+00
           5.40581e+00  2.60330e+00  5.00000e+00
           7.20775e+00  3.47107e+00  5.00000e+00
           9.00969e+00  4.33884e+00  5.00000e+00
           0.00000e+00  0.00000e+00 -5.00000e+00
           1.24698e+00  1.56366e+00 -5.00000e+00
           2.49396e+00  3.12733e+00 -5.00000e+00
           3.74094e+00  4.69099e+00 -5.00000e+00
           4.98792e+00  6.25465e+00 -5.00000e+00
           6.23490e+00  7.81831e+00 -5.00000e+00
           0.00000e+00  0.00000e+00 -3.33333e+00
           1.24698e+00  1.56366e+00 -3.33333e+00
           2.49396e+00  3.12733e+00 -3.33333e+00
           3.74094e+00  4.69099e+00 -3.33333e+00
           4.98792e+00  6.25465e+00 -3.33333e+00
           6.23490e+00  7.81831e+00 -3.33333e+00
           0.00000e+00  0.00000e+00 -1.66667e+00
           1.24698e+00  1.56366e+00 -1.66667e+00
           2.49396e+00  3.12733e+00 -1.66667e+00
           3.74094e+00  4.69099e+00 -1.66667e+00
           4.98792e+00  6.25465e+00 -1.66667e+00
           6.23490e+00  7.81831e+00 -1.66667e+00
           0.00000e+00  0.00000e+00  0.00000e+00
           1.24698e+00  1.56366e+00  0.00000e+00
           2.49396e+00  3.12733e+00  0.00000e+00
           3.74094e+00  4.69099e+00  0.00000e+00
           4.98792e+00  6.25465e+00  0.00000e+00
           6.23490e+00  7.81831e+00  0.00000e+00
           0.00000e+00  0.00000e+00  1.66667e+00
           1.24698e+00  1.56366e+00  1.66667e+00
           2.49396e+00  3.12733e+00  1.66667e+00
           3.74094e+00  4.69099e+00  1.66667e+00
           4.98792e+00  6.25465e+00  1.66667e+00
           6.23490e+00  7.81831e+00  1.66667e+00
           0.00000e+00  0.00000e+00  3.33333e+00
           1.24698e+00  1.56366e+00  3.33333e+00
           2.49396e+00  3.12733e+00  3.33333e+00
           3.74094e+00  4.69099e+00  3.33333e+00
           4.98792e+00  6.25465e+00  3.33333e+00
           6.23490e+00  7.81831e+00  3.33333e+00
           0.00000e+00  0.00000e+00  5.00000e+00
           1.24698e+00  1.56366e+00  5.00000e+00
           2.49396e+00  3.12733e+00  5.00000e+00
           3.74094e+00  4.69099e+00  5.00000e+00
           4.98792e+00  6.25465e+00  5.00000e+00
           6.23490e+00  7.81831e+00  5.00000e+00
           0.00000e+00  0.00000e+00 -5.00000e+00
           4.45042e-01  1.94986e+00 -5.00000e+00
           8.90084e-01  3.89971e+00 -5.00000e+00
           1.33513e+00  5.84957e+00 -5.00000e+00
           1.78017e+00  7.79942e+00 -5.00000e+00
           2.22521e+00  9.74928e+00 -5.00000e+00
           0.00000e+00  0.00000e+00 -3.33333e+00
           4.45042e-01  1.94986e+00 -3.33333e+00
           8.90084e-01  3.89971e+00 -3.33333e+00
           1.33513e+00  5.84957e+00 -3.33333e+00
           1.78017e+00  7.79942e+00 -3.33333e+00
           2.22521e+00  9.74928e+00 -3.33333e+00
           0.00000e+00  0.00000e+00 -1.66667e+00
           4.45042e-01  1.94986e+00 -1.66667e+00
           8.90084e-01  3.89971e+00 -1.66667e+00
           1.33513e+00  5.84957e+00 -1.66667e+00
           1.78017e+00  7.79942e+00 -1.66667e+00
           2.22521e+00  9.74928e+00 -1.66667e+00
           0.00000e+00  0.00000e+00  0.00000e+00
           4.45042e-01  1.94986e+00  0.00000e+00
           8.90084e-01  3.89971e+00  0.00000e+00
           1.33513e+00  5.84957e+00  0.00000e+00
           1.78017e+00  7.79942e+00  0.00000e+00
           2.22521e+00  9.74928e+00  0.00000e+00
           0.00000e+00  0.00000e+00  1.66667e+00
           4.45042e-01  1.94986e+00  1.66667e+00
           8.90084e-01  3.89971e+00  1.66667e+00
           1.33513e+00  5.84957e+00  1.66667e+00
           1.78017e+00  7.79942e+00  1.66667e+00
           2.22521e+00  9.74928e+00  1.66667e+00
           0.00000e+00  0.00000e+00  3.33333e+00
           4.45042e-01  1.94986e+00  3.33333e+00
           8.90084e-01  3.89971e+00  3.33333e+00
           1.33513e+00  5.84957e+00  3.33333e+00
           1.78017e+00  7.79942e+00  3.33333e+00
           2.22521e+00  9.74928e+00  3.33333e+00
           0.00000e+00  0.00000e+00  5.00000e+00
           4.45042e-01  1.94986e+00  5.00000e+00
           8.90084e-01  3.89971e+00  5.00000e+00
           1.33513e+00  5.84957e+00  5.00000e+00
           1.78017e+00  7.79942e+00  5.00000e+00
           2.22521e+00  9.74928e+00  5.00000e+00
          -0.00000e+00  0.00000e+00 -5.00000e+00
          -4.45042e-01  1.94986e+00 -5.00000e+00
          -8.90084e-01  3.89971e+00 -5.00000e+00
          -1.33513e+00  5.84957e+00 -5.00000e+00
          -1.78017e+00  7.79942e+00 -5.00000e+00
          -2.22521e+00  9.74928e+00 -5.00000e+00
          -0.00000e+00  0.00000e+00 -3.33333e+00
          -4.45042e-01  1.94986e+00 -3.33333e+00
          -8.90084e-01  3.89971e+00 -3.33333e+00
          -1.33513e+00  5.84957e+00 -3.33333e+00
          -1.78017e+00  7.79942e+00 -3.33333e+00
          -2.22521e+00  9.74928e+00 -3.33333e+00
          -0.00000e+00  0.00000e+00 -1.66667e+00
          -4.45042e-01  1.94986e+00 -1.66667e+00
          -8.90084e-01  3.89971e+00 -1.66667e+00
          -1.33513e+00  5.84957e+00 -1.66667e+00
          -1.78017e+00  7.79942e+00 -1.66667e+00
          -2.22521e+00  9.74928e+00 -1.66667e+00
          -0.00000e+00  0.00000e+00  0.00000e+00
          -4.45042e-01  1.94986e+00  0.00000e+00
          -8.90084e-01  3.89971e+00  0.00000e+00
          -1.33513e+00  5.84957e+00  0.00000e+00
          -1.78017e+00  7.79942e+00  0.00000e+00
          -2.22521e+00  9.74928e+00  0.00000e+00
          -0.00000e+00  0.00000e+00  1.66667e+00
          -4.45042e-01  1.94986e+00  1.66667e+00
          -8.90084e-01  3.89971e+00  1.66667e+00
          -1.33513e+00  5.84957e+00  1.66667e+00
          -1.78017e+00  7.79942e+00  1.66667e+00
          -2.22521e+00  9.74928e+00  1.66667e+00
          -0.00000e+00  0.00000e+00  3.33333e+00
          -4.45042e-01  1.94986e+00  3.33333e+00
          -8.90084e-01  3.89971e+00  3.33333e+00
          -1.33513e+00  5.84957e+00  3.33333e+00
          -1.78017e+00  7.79942e+00  3.33333e+00
          -2.22521e+00  9.74928e+00  3.33333e+00
          -0.00000e+00  0.00000e+00  5.00000e+00
          -4.45042e-01  1.94986e+00  5.00000e+00
          -8.90084e-01  3.89971e+00  5.00000e+00
          -1.33513e+00  5.84957e+00  5.00000e+00
          -1.78017e+00  7.79942e+00  5.00000e+00
          -2.22521e+00  9.74928e+00  5.00000e+00
          -0.00000e+00  0.00000e+00 -5.00000e+00
          -1.24698e+00  1.56366e+00 -5.00000e+00
          -2.49396e+00  3.12733e+00 -5.00000e+00
          -3.74094e+00  4.69099e+00 -5.00000e+00
          -4.98792e+00  6.25465e+00 -5.00000e+00
          -6.23490e+00  7.81831e+00 -5.00000e+00
          -0.00000e+00  0.00000e+00 -3.33333e+00
          -1.24698e+00  1.56366e+00 -3.33333e+00
          -2.49396e+00  3.12733e+00 -3.33333e+00
          -3.74094e+00  4.69099e+00 -3.33333e+00
          -4.98792e+00  6.25465e+00 -3.33333e+00
          -6.23490e+00  7.81831e+00 -3.33333e+00
          -0.00000e+00  0.00000e+00 -1.66667e+00
          -1.24698e+00  1.56366e+00 -1.66667e+00
          -2.49396e+00  3.12733e+00 -1.66667e+00
          -3.74094e+00  4.69099e+00 -1.66667e+00
          -4.98792e+00  6.25465e+00 -1.66667e+00
          -6.23490e+00  7.81831e+00 -1.66667e+00
          -0.00000e+00  0.00000e+00  0.00000e+00
          -1.24698e+00  1.56366e+00  0.00000e+00
          -2.49396e+00  3.12733e+00  0.00000e+00
          -3.74094e+00  4.69099e+00  0.00000e+00
          -4.98792e+00  6.25465e+00  0.00000e+00
          -6.23490e+00  7.81831e+00  0.00000e+00
          -0.00000e+00  0.00000e+00  1.66667e+00
          -1.24698e+00  1.56366e+00  1.66667e+00
          -2.49396e+00  3.12733e+00  1.66667e+00
          -3.74094e+00  4.69099e+00  1.66667e+00
          -4.98792e+00  6.25465e+00  1.66667e+00
          -6.23490e+00  7.81831e+00  1.66667e+00
          -0.00000e+00  0.00000e+00  3.33333e+00
          -1.24698e+00  1.56366e+00  3.33333e+00
          -2.49396e+00  3.12733e+00  3.33333e+00
          -3.74094e+00  4.69099e+00  3.33333e+00
          -4.98792e+00  6.25465e+00  3.33333e+00
          -6.23490e+00  7.81831e+00  3.33333e+00
          -0.00000e+00  0.00000e+00  5.00000e+00
          -1.24698e+00  1.56366e+00  5.00000e+00
          -2.49396e+00  3.12733e+00  5.00000e+00
          -3.74094e+00  4.69099e+00  5.00000e+00
          -4.98792e+00  6.25465e+00  5.00000e+00
          -6.23490e+00  7.81831e+00  5.00000e+00
          -0.00000e+00  0.00000e+00 -5.00000e+00
          -1.80194e+00  8.67767e-01 -5.00000e+00
          -3.60388e+00  1.73553e+00 -5.00000e+00
          -5.40581e+00  2.60330e+00 -5.00000e+00
          -7.20775e+00  3.47107e+00 -5.00000e+00
          -9.00969e+00  4.33884e+00 -5.00000e+00
          -0.00000e+00  0.00000e+00 -3.33333e+00
          -1.80194e+00  8.67767e-01 -3.33333e+00
          -3.60388e+00  1.73553e+00 -3.33333e+00
          -5.40581e+00  2.60330e+00 -3.33333e+00
          -7.20775e+00  3.47107e+00 -3.33333e+00
          -9.00969e+00  4.33884e+00 -3.33333e+00
          -0.00000e+00  0.00000e+00 -1.66667e+00
          -1.80194e+00  8.67767e-01 -1.66667e+00
          -3.60388e+00  1.73553e+00 -1.66667e+00
          -5.40581e+00  2.60330e+00 -1.66667e+00
          -7.20775e+00  3.47107e+00 -1.66667e+00
          -9.00969e+00  4.33884e+00 -1.66667e+00
          -0.00000e+00  0.00000e+00  0.00000e+00
          -1.80194e+00  8.67767e-01  0.00000e+00
          -3.60388e+00  1.73553e+00  0.00000e+00
          -5.40581e+00  2.60330e+00  0.00000e+00
          -7.20775e+00  3.47107e+00  0.00000e+00
          -9.00969e+00  4.33884e+00  0.00000e+00
          -0.00000e+00  0.00000e+00  1.66667e+00
          -1.80194e+00  8.67767e-01  1.66667e+00
          -3.60388e+00  1.73553e+00  1.66667e+00
          -5.40581e+00  2.60330e+00  1.66667e+00
          -7.20775e+00  3.47107e+00  1.66667e+00
          -9.00969e+00  4.33884e+00  1.66667e+00
          -0.00000e+00  0.00000e+00  3.33333e+00
          -1.80194e+00  8.67767e-01  3.33333e+00
          -3.60388e+00  1.73553e+00  3.33333e+00
          -5.40581e+00  2.60330e+00  3.33333e+00
          -7.20775e+00  3.47107e+00  3.33333e+00
          -9.00969e+00  4.33884e+00  3.33333e+00
          -0.00000e+00  0.00000e+00  5.00000e+00
          -1.80194e+00  8.67767e-01  5.00000e+00
          -3.60388e+00  1.73553e+00  5.00000e+00
          -5.40581e+00  2.60330e+00  5.00000e+00
          -7.20775e+00  3.47107e+00  5.00000e+00
          -9.00969e+00  4.33884e+00  5.00000e+00
          -0.00000e+00  0.00000e+00 -5.00000e+00
          -2.00000e+00  2.44929e-16 -5.00000e+00
          -4.00000e+00  4.89859e-16 -5.00000e+00
          -6.00000e+00  7.34788e-16 -5.00000e+00
          -8.00000e+00  9.79717e-16 -5.00000e+00
          -1.00000e+01  1.22465e-15 -5.00000e+00
          -0.00000e+00  0.00000e+00 -3.33333e+00
          -2.00000e+00  2.44929e-16 -3.33333e+00
          -4.00000e+00  4.89859e-16 -3.33333e+00
          -6.00000e+00  7.34788e-16 -3.33333e+00
          -8.00000e+00  9.79717e-16 -3.33333e+00
          -1.00000e+01  1.22465e-15 -3.33333e+00
          -0.00000e+00  0.00000e+00 -1.66667e+00
          -2.00000e+00  2.44929e-16 -1.66667e+00
          -4.00000e+00  4.89859e-16 -1.66667e+00
          -6.00000e+00  7.34788e-16 -1.66667e+00
          -8.00000e+00  9.79717e-16 -1.66667e+00
          -1.00000e+01  1.22465e-15 -1.66667e+00
          -0.00000e+00  0.00000e+00  0.00000e+00
          -2.00000e+00  2.44929e-16  0.00000e+00
          -4.00000e+00  4.89859e-16  0.00000e+00
          -6.00000e+00  7.34788e-16  0.00000e+00
          -8.00000e+00  9.79717e-16  0.00000e+00
          -1.00000e+01  1.22465e-15  0.00000e+00
          -0.00000e+00  0.00000e+00  1.66667e+00
          -2.00000e+00  2.44929e-16  1.66667e+00
          -4.00000e+00  4.89859e-16  1.66667e+00
          -6.00000e+00  7.34788e-16  1.66667e+00
          -8.00000e+00  9.79717e-16  1.66667e+00
          -1.00000e+01  1.22465e-15  1.66667e+00
          -0.00000e+00  0.00000e+00  3.33333e+00
          -2.00000e+00  2.44929e-16  3.33333e+00
          -4.00000e+00  4.89859e-16  3.33333e+00
          -6.00000e+00  7.34788e-16  3.33333e+00
          -8.00000e+00  9.79717e-16  3.33333e+00
          -1.00000e+01  1.22465e-15  3.33333e+00
          -0.00000e+00  0.00000e+00  5.00000e+00
          -2.00000e+00  2.44929e-16  5.00000e+00
          -4.00000e+00  4.89859e-16  5.00000e+00
          -6.00000e+00  7.34788e-16  5.00000e+00
          -8.00000e+00  9.79717e-16  5.00000e+00
          -1.00000e+01  1.22465e-15  5.00000e+00
        </DataArray>
      </Points>
      <CellData Scalars="cell_scalars">
        <DataArray type="Int32" Name="material_dominant" format="ascii">
                     2           3           4           4           4
                     2           3           4           4           4
                     2           3           4           4           4
                     2           3           4           4           4
                     2           3           4           4           4
                     2           3           4           4           2

                     2           3           4           4           4
                     2           3           4           4           4
                     2           3           4           4           4
                     2           3           4           4           4
                     2           3           4           4           4
                     2           3           4           4           2

                     2           3           4           4           4
                     2           3           4           4           4
                     2           3           4           4           4
                     2           3           4           4           4
                     2           3           4           4           4
                     2           3           4           4           2

                     2           3           4           4           4
                     2           3           4           4           4
                     2           3           4           4           4
                     2           3           4           4           4
                     2           3           4           4           4
                     2           3           4           4           2

                     2           3           4           4           4
                     2           3           4           4           4
                     2           3           4           4           4
                     2           3           4           4           4
                     2           3           4           4           4
                     2           3           4           4           2

                     2           3           4           4           4
                     2           3           4           4           4
                     2           3           4           4           4
                     2           3           4           4           4
                     2           3           4           4           4
                     2           3           4           4           2

                     2           3           4           4           4
                     2           3           4           4           4
                     2           3           4           4           4
                     2           3           4           4           4
                     2           3           4           4           4
                     2           3           4           4           2
        </DataArray>
        <DataArray type="Float32" Name="density_dominant" format="ascii">
           9.00000e+00 1.00000e+01 1.10000e+01 1.10000e+01 1.10000e+01
           9.00000e+00 1.00000e+01 1.10000e+01 1.10000e+01 1.10000e+01
           9.00000e+00 1.00000e+01 1.10000e+01 1.10000e+01 1.10000e+01
           9.00000e+00 1.00000e+01 1.10000e+01 1.10000e+01 1.10000e+01
           9.00000e+00 1.00000e+01 1.10000e+01 1.10000e+01 1.10000e+01
           9.00000e+00 1.00000e+01 1.10000e+01 1.10000e+01 9.00000e+00

           9.00000e+00 1.00000e+01 1.10000e+01 1.10000e+01 1.10000e+01
           9.00000e+00 1.00000e+01 1.10000e+01 1.10000e+01 1.10000e+01
           9.00000e+00 1.00000e+01 1.10000e+01 1.10000e+01 1.10000e+01
           9.00000e+00 1.00000e+01 1.10000e+01 1.10000e+01 1.10000e+01
           9.00000e+00 1.00000e+01 1.10000e+01 1.10000e+01 1.10000e+01
           9.00000e+00 1.00000e+01 1.10000e+01 1.10000e+01 9.00000e+00

           9.00000e+00 1.00000e+01 1.10000e+01 1.10000e+01 1.10000e+01
           9.00000e+00 1.00000e+01 1.10000e+01 1.10000e+01 1.10000e+01
           9.00000e+00 1.00000e+01 1.10000e+01 1.10000e+01 1.10000e+01
           9.00000e+00 1.00000e+01 1.10000e+01 1.10000e+01 1.10000e+01
           9.00000e+00 1.00000e+01 1.10000e+01 1.10000e+01 1.10000e+01
           9.00000e+00 1.00000e+01 1.10000e+01 1.10000e+01 9.00000e+00

           9.00000e+00 1.00000e+01 1.10000e+01 1.10000e+01 1.10000e+01
           9.00000e+00 1.00000e+01 1.10000e+01 1.10000e+01 1.10000e+01
           9.00000e+00 1.00000e+01 1.10000e+01 1.10000e+01 1.10000e+01
           9.00000e+00 1.00000e+01 1.10000e+01 1.10000e+01 1.10000e+01
           9.00000e+00 1.00000e+01 1.10000e+01 1.10000e+01 1.10000e+01
           9.00000e+00 1.00000e+01 1.10000e+01 1.10000e+01 9.00000e+00

           9.00000e+00 1.00000e+01 1.10000e+01 1.10000e+01 1.10000e+01
           9.00000e+00 1.00000e+01 1.10000e+01 1.10000e+01 1.10000e+01
           9.00000e+00 1.00000e+01 1.10000e+01 1.10000e+01 1.10000e+01
           9.00000e+00 1.00000e+01 1.10000e+01 1.10000e+01 1.10000e+01
           9.00000e+00 1.00000e+01 1.10000e+01 1.10000e+01 1.10000e+01
           9.00000e+00 1.00000e+01 1.10000e+01 1.10000e+01 9.00000e+00

           9.00000e+00 1.00000e+01 1.10000e+01 1.10000e+01 1.10000e+01
           9.00000e+00 1.00000e+01 1.10000e+01 1.10000e+01 1.10000e+01
           9.00000e+00 1.00000e+01 1.10000e+01 1.10000e+01 1.10000e+01
           9.00000e+00 1.00000e+01 1.10000e+01 1.10000e+01 1.10000e+01
           9.00000e+00 1.00000e+01 1.10000e+01 1.10000e+01 1.10000e+01
           9.00000e+00 1.00000e+01 1.10000e+01 1.10000e+01 9.00000e+00

           9.00000e+00 1.00000e+01 1.10000e+01 1.10000e+01 1.10000e+01
           9.00000e+00 1.00000e+01 1.10000e+01 1.10000e+01 1.10000e+01
           9.00000e+00 1.00000e+01 1.10000e+01 1.10000e+01 1.10000e+01
           9.00000e+00 1.00000e+01 1.10000e+01 1.10000e+01 1.10000e+01
           9.00000e+00 1.00000e+01 1.10000e+01 1.10000e+01 1.10000e+01
           9.00000e+00 1.00000e+01 1.10000e+01 1.10000e+01 9.00000e+00
        </DataArray>
      </CellData>
    </Piece>
  </StructuredGrid>
</VTKFile>
