<?xml version="1.0"?>
<VTKFile type="StructuredGrid" version="0.1">
  <StructuredGrid WholeExtent="0 5 0 6 0 1">
    <Piece Extent="0 5 0 6 0 1">
      <Points>
        <DataArray type="Float32" format="ascii" NumberOfComponents="3">
           0.00000e+00  0.00000e+00 -5.00000e+00
           2.00000e+00  0.00000e+00 -5.00000e+00
           4.00000e+00  0.00000e+00 -5.00000e+00
           6.00000e+00  0.00000e+00 -5.00000e+00
           8.00000e+00  0.00000e+00 -5.00000e+00
           1.00000e+01  0.00000e+00 -5.00000e+00
           0.00000e+00  0.00000e+00 -3.33333e+00
           2.00000e+00  0.00000e+00 -3.33333e+00
           4.00000e+00  0.00000e+00 -3.33333e+00
           6.00000e+00  0.00000e+00 -3.33333e+00
           8.00000e+00  0.00000e+00 -3.33333e+00
           1.00000e+01  0.00000e+00 -3.33333e+00
           0.00000e+00  0.00000e+00 -1.66667e+00
           2.00000e+00  0.00000e+00 -1.66667e+00
           4.00000e+00  0.00000e+00 -1.66667e+00
           6.00000e+00  0.00000e+00 -1.66667e+00
           8.00000e+00  0.00000e+00 -1.66667e+00
           1.00000e+01  0.00000e+00 -1.66667e+00
           0.00000e+00  0.00000e+00  0.00000e+00
           2.00000e+00  0.00000e+00  0.00000e+00
           4.00000e+00  0.00000e+00  0.00000e+00
           6.00000e+00  0.00000e+00  0.00000e+00
           8.00000e+00  0.00000e+00  0.00000e+00
           1.00000e+01  0.00000e+00  0.00000e+00
           0.00000e+00  0.00000e+00  1.66667e+00
           2.00000e+00  0.00000e+00  1.66667e+00
           4.00000e+00  0.00000e+00  1.66667e+00
           6.00000e+00  0.00000e+00  1.66667e+00
           8.00000e+00  0.00000e+00  1.66667e+00
           1.00000e+01  0.00000e+00  1.66667e+00
           0.00000e+00  0.00000e+00  3.33333e+00
           2.00000e+00  0.00000e+00  3.33333e+00
           4.00000e+00  0.00000e+00  3.33333e+00
           6.00000e+00  0.00000e+00  3.33333e+00
           8.00000e+00  0.00000e+00  3.33333e+00
           1.00000e+01  0.00000e+00  3.33333e+00
           0.00000e+00  0.00000e+00  5.00000e+00
           2.00000e+00  0.00000e+00  5.00000e+00
           4.00000e+00  0.00000e+00  5.00000e+00
           6.00000e+00  0.00000e+00  5.00000e+00
           8.00000e+00  0.00000e+00  5.00000e+00
           1.00000e+01  0.00000e+00  5.00000e+00
           0.00000e+00  0.00000e+00 -5.00000e+00
           1.99970e+00  3.49048e-02 -5.00000e+00
           3.99939e+00  6.98096e-02 -5.00000e+00
           5.99909e+00  1.04714e-01 -5.00000e+00
           7.99878e+00  1.39619e-01 -5.00000e+00
           9.99848e+00  1.74524e-01 -5.00000e+00
           0.00000e+00  0.00000e+00 -3.33333e+00
           1.99970e+00  3.49048e-02 -3.33333e+00
           3.99939e+00  6.98096e-02 -3.33333e+00
           5.99909e+00  1.04714e-01 -3.33333e+00
           7.99878e+00  1.39619e-01 -3.33333e+00
           9.99848e+00  1.74524e-01 -3.33333e+00
           0.00000e+00  0.00000e+00 -1.66667e+00
           1.99970e+00  3.49048e-02 -1.66667e+00
           3.99939e+00  6.98096e-02 -1.66667e+00
           5.99909e+00  1.04714e-01 -1.66667e+00
           7.99878e+00  1.39619e-01 -1.66667e+00
           9.99848e+00  1.74524e-01 -1.66667e+00
           0.00000e+00  0.00000e+00  0.00000e+00
           1.99970e+00  3.49048e-02  0.00000e+00
           3.99939e+00  6.98096e-02  0.00000e+00
           5.99909e+00  1.04714e-01  0.00000e+00
           7.99878e+00  1.39619e-01  0.00000e+00
           9.99848e+00  1.74524e-01  0.00000e+00
           0.00000e+00  0.00000e+00  1.66667e+00
           1.99970e+00  3.49048e-02  1.66667e+00
           3.99939e+00  6.98096e-02  1.66667e+00
           5.99909e+00  1.04714e-01  1.66667e+00
           7.99878e+00  1.39619e-01  1.66667e+00
           9.99848e+00  1.74524e-01  1.66667e+00
           0.00000e+00  0.00000e+00  3.33333e+00
           1.99970e+00  3.49048e-02  3.33333e+00
           3.99939e+00  6.98096e-02  3.33333e+00
           5.99909e+00  1.04714e-01  3.33333e+00
           7.99878e+00  1.39619e-01  3.33333e+00
           9.99848e+00  1.74524e-01  3.33333e+00
           0.00000e+00  0.00000e+00  5.00000e+00
           1.99970e+00  3.49048e-02  5.00000e+00
           3.99939e+00  6.98096e-02  5.00000e+00
           5.99909e+00  1.04714e-01  5.00000e+00
           7.99878e+00  1.39619e-01  5.00000e+00
           9.99848e+00  1.74524e-01  5.00000e+00
        </DataArray>
      </Points>
      <CellData Scalars="cell_scalars">
        <DataArray type="Int32" Name="material_dominant" format="ascii">
                     2           2           2           2           2
                     2           2           2           2           2
                     3           3           3           3           3
                     3           3           3           3           3
                     4           4           4           4           4
                     4           4           4           4           4
        </DataArray>
        <DataArray type="Float32" Name="density_dominant" format="ascii">
           9.00000e+00 9.00000e+00 9.00000e+00 9.00000e+00 9.00000e+00
           9.00000e+00 9.00000e+00 9.00000e+00 9.00000e+00 9.00000e+00
           1.00000e+01 1.00000e+01 1.00000e+01 1.00000e+01 1.00000e+01
           1.00000e+01 1.00000e+01 1.00000e+01 1.00000e+01 1.00000e+01
           1.10000e+01 1.10000e+01 1.10000e+01 1.10000e+01 1.10000e+01
           1.10000e+01 1.10000e+01 1.10000e+01 1.10000e+01 1.10000e+01
        </DataArray>
      </CellData>
    </Piece>
  </StructuredGrid>
</VTKFile>
