<?xml version="1.0"?>
<VTKFile type="StructuredGrid" version="0.1">
  <StructuredGrid WholeExtent="0 4 0 5 0 4">
    <Piece Extent="0 4 0 5 0 4">
      <Points>
        <DataArray type="Float32" format="ascii" NumberOfComponents="3">
           0.00000e+00  0.00000e+00  0.00000e+00
           2.50000e+00  0.00000e+00  0.00000e+00
           5.00000e+00  0.00000e+00  0.00000e+00
           7.50000e+00  0.00000e+00  0.00000e+00
           1.00000e+01  0.00000e+00  0.00000e+00
           0.00000e+00  0.00000e+00  2.00000e+00
           2.50000e+00  0.00000e+00  2.00000e+00
           5.00000e+00  0.00000e+00  2.00000e+00
           7.50000e+00  0.00000e+00  2.00000e+00
           1.00000e+01  0.00000e+00  2.00000e+00
           0.00000e+00  0.00000e+00  4.00000e+00
           2.50000e+00  0.00000e+00  4.00000e+00
           5.00000e+00  0.00000e+00  4.00000e+00
           7.50000e+00  0.00000e+00  4.00000e+00
           1.00000e+01  0.00000e+00  4.00000e+00
           0.00000e+00  0.00000e+00  6.00000e+00
           2.50000e+00  0.00000e+00  6.00000e+00
           5.00000e+00  0.00000e+00  6.00000e+00
           7.50000e+00  0.00000e+00  6.00000e+00
           1.00000e+01  0.00000e+00  6.00000e+00
           0.00000e+00  0.00000e+00  8.00000e+00
           2.50000e+00  0.00000e+00  8.00000e+00
           5.00000e+00  0.00000e+00  8.00000e+00
           7.50000e+00  0.00000e+00  8.00000e+00
           1.00000e+01  0.00000e+00  8.00000e+00
           0.00000e+00  0.00000e+00  1.00000e+01
           2.50000e+00  0.00000e+00  1.00000e+01
           5.00000e+00  0.00000e+00  1.00000e+01
           7.50000e+00  0.00000e+00  1.00000e+01
           1.00000e+01  0.00000e+00  1.00000e+01
           0.00000e+00  0.00000e+00  0.00000e+00
           1.53081e-16  2.50000e+00  0.00000e+00
           3.06162e-16  5.00000e+00  0.00000e+00
           4.59243e-16  7.50000e+00  0.00000e+00
           6.12323e-16  1.00000e+01  0.00000e+00
           0.00000e+00  0.00000e+00  2.00000e+00
           1.53081e-16  2.50000e+00  2.00000e+00
           3.06162e-16  5.00000e+00  2.00000e+00
           4.59243e-16  7.50000e+00  2.00000e+00
           6.12323e-16  1.00000e+01  2.00000e+00
           0.00000e+00  0.00000e+00  4.00000e+00
           1.53081e-16  2.50000e+00  4.00000e+00
           3.06162e-16  5.00000e+00  4.00000e+00
           4.59243e-16  7.50000e+00  4.00000e+00
           6.12323e-16  1.00000e+01  4.00000e+00
           0.00000e+00  0.00000e+00  6.00000e+00
           1.53081e-16  2.50000e+00  6.00000e+00
           3.06162e-16  5.00000e+00  6.00000e+00
           4.59243e-16  7.50000e+00  6.00000e+00
           6.12323e-16  1.00000e+01  6.00000e+00
           0.00000e+00  0.00000e+00  8.00000e+00
           1.53081e-16  2.50000e+00  8.00000e+00
           3.06162e-16  5.00000e+00  8.00000e+00
           4.59243e-16  7.50000e+00  8.00000e+00
           6.12323e-16  1.00000e+01  8.00000e+00
           0.00000e+00  0.00000e+00  1.00000e+01
           1.53081e-16  2.50000e+00  1.00000e+01
           3.06162e-16  5.00000e+00  1.00000e+01
           4.59243e-16  7.50000e+00  1.00000e+01
           6.12323e-16  1.00000e+01  1.00000e+01
          -0.00000e+00  0.00000e+00  0.00000e+00
          -2.50000e+00  3.06162e-16  0.00000e+00
          -5.00000e+00  6.12323e-16  0.00000e+00
          -7.50000e+00  9.18485e-16  0.00000e+00
          -1.00000e+01  1.22465e-15  0.00000e+00
          -0.00000e+00  0.00000e+00  2.00000e+00
          -2.50000e+00  3.06162e-16  2.00000e+00
          -5.00000e+00  6.12323e-16  2.00000e+00
          -7.50000e+00  9.18485e-16  2.00000e+00
          -1.00000e+01  1.22465e-15  2.00000e+00
          -0.00000e+00  0.00000e+00  4.00000e+00
          -2.50000e+00  3.06162e-16  4.00000e+00
          -5.00000e+00  6.12323e-16  4.00000e+00
          -7.50000e+00  9.18485e-16  4.00000e+00
          -1.00000e+01  1.22465e-15  4.00000e+00
          -0.00000e+00  0.00000e+00  6.00000e+00
          -2.50000e+00  3.06162e-16  6.00000e+00
          -5.00000e+00  6.12323e-16  6.00000e+00
          -7.50000e+00  9.18485e-16  6.00000e+00
          -1.00000e+01  1.22465e-15  6.00000e+00
          -0.00000e+00  0.00000e+00  8.00000e+00
          -2.50000e+00  3.06162e-16  8.00000e+00
          -5.00000e+00  6.12323e-16  8.00000e+00
          -7.50000e+00  9.18485e-16  8.00000e+00
          -1.00000e+01  1.22465e-15  8.00000e+00
          -0.00000e+00  0.00000e+00  1.00000e+01
          -2.50000e+00  3.06162e-16  1.00000e+01
          -5.00000e+00  6.12323e-16  1.00000e+01
          -7.50000e+00  9.18485e-16  1.00000e+01
          -1.00000e+01  1.22465e-15  1.00000e+01
          -0.00000e+00 -0.00000e+00  0.00000e+00
          -4.59243e-16 -2.50000e+00  0.00000e+00
          -9.18485e-16 -5.00000e+00  0.00000e+00
          -1.37773e-15 -7.50000e+00  0.00000e+00
          -1.83697e-15 -1.00000e+01  0.00000e+00
          -0.00000e+00 -0.00000e+00  2.00000e+00
          -4.59243e-16 -2.50000e+00  2.00000e+00
          -9.18485e-16 -5.00000e+00  2.00000e+00
          -1.37773e-15 -7.50000e+00  2.00000e+00
          -1.83697e-15 -1.00000e+01  2.00000e+00
          -0.00000e+00 -0.00000e+00  4.00000e+00
          -4.59243e-16 -2.50000e+00  4.00000e+00
          -9.18485e-16 -5.00000e+00  4.00000e+00
          -1.37773e-15 -7.50000e+00  4.00000e+00
          -1.83697e-15 -1.00000e+01  4.00000e+00
          -0.00000e+00 -0.00000e+00  6.00000e+00
          -4.59243e-16 -2.50000e+00  6.00000e+00
          -9.18485e-16 -5.00000e+00  6.00000e+00
          -1.37773e-15 -7.50000e+00  6.00000e+00
          -1.83697e-15 -1.00000e+01  6.00000e+00
          -0.00000e+00 -0.00000e+00  8.00000e+00
          -4.59243e-16 -2.50000e+00  8.00000e+00
          -9.18485e-16 -5.00000e+00  8.00000e+00
          -1.37773e-15 -7.50000e+00  8.00000e+00
          -1.83697e-15 -1.00000e+01  8.00000e+00
          -0.00000e+00 -0.00000e+00  1.00000e+01
          -4.59243e-16 -2.50000e+00  1.00000e+01
          -9.18485e-16 -5.00000e+00  1.00000e+01
          -1.37773e-15 -7.50000e+00  1.00000e+01
          -1.83697e-15 -1.00000e+01  1.00000e+01
           0.00000e+00 -0.00000e+00  0.00000e+00
           2.50000e+00 -6.12323e-16  0.00000e+00
           5.00000e+00 -1.22465e-15  0.00000e+00
           7.50000e+00 -1.83697e-15  0.00000e+00
           1.00000e+01 -2.44929e-15  0.00000e+00
           0.00000e+00 -0.00000e+00  2.00000e+00
           2.50000e+00 -6.12323e-16  2.00000e+00
           5.00000e+00 -1.22465e-15  2.00000e+00
           7.50000e+00 -1.83697e-15  2.00000e+00
           1.00000e+01 -2.44929e-15  2.00000e+00
           0.00000e+00 -0.00000e+00  4.00000e+00
           2.50000e+00 -6.12323e-16  4.00000e+00
           5.00000e+00 -1.22465e-15  4.00000e+00
           7.50000e+00 -1.83697e-15  4.00000e+00
           1.00000e+01 -2.44929e-15  4.00000e+00
           0.00000e+00 -0.00000e+00  6.00000e+00
           2.50000e+00 -6.12323e-16  6.00000e+00
           5.00000e+00 -1.22465e-15  6.00000e+00
           7.50000e+00 -1.83697e-15  6.00000e+00
           1.00000e+01 -2.44929e-15  6.00000e+00
           0.00000e+00 -0.00000e+00  8.00000e+00
           2.50000e+00 -6.12323e-16  8.00000e+00
           5.00000e+00 -1.22465e-15  8.00000e+00
           7.50000e+00 -1.83697e-15  8.00000e+00
           1.00000e+01 -2.44929e-15  8.00000e+00
           0.00000e+00 -0.00000e+00  1.00000e+01
           2.50000e+00 -6.12323e-16  1.00000e+01
           5.00000e+00 -1.22465e-15  1.00000e+01
           7.50000e+00 -1.83697e-15  1.00000e+01
           1.00000e+01 -2.44929e-15  1.00000e+01
        </DataArray>
      </Points>
      <CellData Scalars="cell_scalars">
        <DataArray type="Float32" Name="Tally_Value_0.00000e+00_lt_E[0]_lt_1.00000e-09_-1.00000e+36_lt_T[0]_lt_0.00000e+00" format="ascii">
           0.00000e+00 0.00000e+00 0.00000e+00 0.00000e+00
           0.00000e+00 0.00000e+00 0.00000e+00 0.00000e+00
           0.00000e+00 0.00000e+00 0.00000e+00 0.00000e+00
           0.00000e+00 0.00000e+00 0.00000e+00 0.00000e+00
           0.00000e+00 0.00000e+00 0.00000e+00 0.00000e+00

           0.00000e+00 0.00000e+00 0.00000e+00 0.00000e+00
           0.00000e+00 0.00000e+00 0.00000e+00 0.00000e+00
           0.00000e+00 0.00000e+00 0.00000e+00 0.00000e+00
           0.00000e+00 0.00000e+00 0.00000e+00 0.00000e+00
           0.00000e+00 0.00000e+00 0.00000e+00 0.00000e+00

           0.00000e+00 0.00000e+00 0.00000e+00 0.00000e+00
           0.00000e+00 0.00000e+00 0.00000e+00 0.00000e+00
           0.00000e+00 0.00000e+00 0.00000e+00 0.00000e+00
           0.00000e+00 0.00000e+00 0.00000e+00 0.00000e+00
           0.00000e+00 0.00000e+00 0.00000e+00 0.00000e+00

           0.00000e+00 0.00000e+00 0.00000e+00 0.00000e+00
           0.00000e+00 0.00000e+00 0.00000e+00 0.00000e+00
           0.00000e+00 0.00000e+00 0.00000e+00 0.00000e+00
           0.00000e+00 0.00000e+00 0.00000e+00 0.00000e+00
           0.00000e+00 0.00000e+00 0.00000e+00 0.00000e+00
        </DataArray>

        <DataArray type="Float32" Name="Tally_Value_0.00000e+00_lt_E[0]_lt_1.00000e-09_0.00000e+00_lt_T[1]_lt_1.00000e+01" format="ascii">
           0.00000e+00 0.00000e+00 0.00000e+00 0.00000e+00
           0.00000e+00 0.00000e+00 0.00000e+00 0.00000e+00
           0.00000e+00 0.00000e+00 0.00000e+00 0.00000e+00
           0.00000e+00 0.00000e+00 0.00000e+00 0.00000e+00
           0.00000e+00 0.00000e+00 0.00000e+00 0.00000e+00

           0.00000e+00 0.00000e+00 0.00000e+00 0.00000e+00
           0.00000e+00 0.00000e+00 0.00000e+00 0.00000e+00
           0.00000e+00 0.00000e+00 0.00000e+00 0.00000e+00
           0.00000e+00 0.00000e+00 0.00000e+00 0.00000e+00
           0.00000e+00 0.00000e+00 0.00000e+00 0.00000e+00

           0.00000e+00 0.00000e+00 0.00000e+00 0.00000e+00
           0.00000e+00 0.00000e+00 0.00000e+00 0.00000e+00
           0.00000e+00 0.00000e+00 0.00000e+00 0.00000e+00
           0.00000e+00 0.00000e+00 0.00000e+00 0.00000e+00
           0.00000e+00 0.00000e+00 0.00000e+00 0.00000e+00

           0.00000e+00 0.00000e+00 0.00000e+00 0.00000e+00
           0.00000e+00 0.00000e+00 0.00000e+00 0.00000e+00
           0.00000e+00 0.00000e+00 0.00000e+00 0.00000e+00
           0.00000e+00 0.00000e+00 0.00000e+00 0.00000e+00
           0.00000e+00 0.00000e+00 0.00000e+00 0.00000e+00
        </DataArray>

        <DataArray type="Float32" Name="Tally_Value_0.00000e+00_lt_E[0]_lt_1.00000e-09_1.00000e+01_lt_T[2]_lt_2.00000e+01" format="ascii">
           0.00000e+00 0.00000e+00 0.00000e+00 0.00000e+00
           0.00000e+00 0.00000e+00 0.00000e+00 0.00000e+00
           0.00000e+00 0.00000e+00 0.00000e+00 0.00000e+00
           0.00000e+00 0.00000e+00 0.00000e+00 0.00000e+00
           0.00000e+00 0.00000e+00 0.00000e+00 0.00000e+00

           0.00000e+00 0.00000e+00 0.00000e+00 0.00000e+00
           0.00000e+00 0.00000e+00 0.00000e+00 0.00000e+00
           0.00000e+00 0.00000e+00 0.00000e+00 0.00000e+00
           0.00000e+00 0.00000e+00 0.00000e+00 0.00000e+00
           0.00000e+00 0.00000e+00 0.00000e+00 0.00000e+00

           0.00000e+00 0.00000e+00 0.00000e+00 0.00000e+00
           0.00000e+00 0.00000e+00 0.00000e+00 0.00000e+00
           0.00000e+00 0.00000e+00 0.00000e+00 0.00000e+00
           0.00000e+00 0.00000e+00 0.00000e+00 0.00000e+00
           0.00000e+00 0.00000e+00 0.00000e+00 0.00000e+00

           0.00000e+00 0.00000e+00 0.00000e+00 0.00000e+00
           0.00000e+00 0.00000e+00 0.00000e+00 0.00000e+00
           0.00000e+00 0.00000e+00 0.00000e+00 0.00000e+00
           0.00000e+00 0.00000e+00 0.00000e+00 0.00000e+00
           0.00000e+00 0.00000e+00 0.00000e+00 0.00000e+00
        </DataArray>

        <DataArray type="Float32" Name="Tally_Value_0.00000e+00_lt_E[0]_lt_1.00000e-09_T[total]" format="ascii">
           0.00000e+00 0.00000e+00 0.00000e+00 0.00000e+00
           0.00000e+00 0.00000e+00 0.00000e+00 0.00000e+00
           0.00000e+00 0.00000e+00 0.00000e+00 0.00000e+00
           0.00000e+00 0.00000e+00 0.00000e+00 0.00000e+00
           0.00000e+00 0.00000e+00 0.00000e+00 0.00000e+00

           0.00000e+00 0.00000e+00 0.00000e+00 0.00000e+00
           0.00000e+00 0.00000e+00 0.00000e+00 0.00000e+00
           0.00000e+00 0.00000e+00 0.00000e+00 0.00000e+00
           0.00000e+00 0.00000e+00 0.00000e+00 0.00000e+00
           0.00000e+00 0.00000e+00 0.00000e+00 0.00000e+00

           0.00000e+00 0.00000e+00 0.00000e+00 0.00000e+00
           0.00000e+00 0.00000e+00 0.00000e+00 0.00000e+00
           0.00000e+00 0.00000e+00 0.00000e+00 0.00000e+00
           0.00000e+00 0.00000e+00 0.00000e+00 0.00000e+00
           0.00000e+00 0.00000e+00 0.00000e+00 0.00000e+00

           0.00000e+00 0.00000e+00 0.00000e+00 0.00000e+00
           0.00000e+00 0.00000e+00 0.00000e+00 0.00000e+00
           0.00000e+00 0.00000e+00 0.00000e+00 0.00000e+00
           0.00000e+00 0.00000e+00 0.00000e+00 0.00000e+00
           0.00000e+00 0.00000e+00 0.00000e+00 0.00000e+00
        </DataArray>

        <DataArray type="Float32" Name="Tally_Value_1.00000e-09_lt_E[1]_lt_1.00000e-03_-1.00000e+36_lt_T[0]_lt_0.00000e+00" format="ascii">
           0.00000e+00 0.00000e+00 0.00000e+00 0.00000e+00
           0.00000e+00 0.00000e+00 0.00000e+00 0.00000e+00
           0.00000e+00 0.00000e+00 0.00000e+00 0.00000e+00
           0.00000e+00 0.00000e+00 0.00000e+00 0.00000e+00
           0.00000e+00 0.00000e+00 0.00000e+00 0.00000e+00

           0.00000e+00 0.00000e+00 0.00000e+00 0.00000e+00
           0.00000e+00 0.00000e+00 0.00000e+00 0.00000e+00
           0.00000e+00 0.00000e+00 0.00000e+00 0.00000e+00
           0.00000e+00 0.00000e+00 0.00000e+00 0.00000e+00
           0.00000e+00 0.00000e+00 0.00000e+00 0.00000e+00

           0.00000e+00 0.00000e+00 0.00000e+00 0.00000e+00
           0.00000e+00 0.00000e+00 0.00000e+00 0.00000e+00
           0.00000e+00 0.00000e+00 0.00000e+00 0.00000e+00
           0.00000e+00 0.00000e+00 0.00000e+00 0.00000e+00
           0.00000e+00 0.00000e+00 0.00000e+00 0.00000e+00

           0.00000e+00 0.00000e+00 0.00000e+00 0.00000e+00
           0.00000e+00 0.00000e+00 0.00000e+00 0.00000e+00
           0.00000e+00 0.00000e+00 0.00000e+00 0.00000e+00
           0.00000e+00 0.00000e+00 0.00000e+00 0.00000e+00
           0.00000e+00 0.00000e+00 0.00000e+00 0.00000e+00
        </DataArray>

        <DataArray type="Float32" Name="Tally_Value_1.00000e-09_lt_E[1]_lt_1.00000e-03_0.00000e+00_lt_T[1]_lt_1.00000e+01" format="ascii">
           5.68475e-05 8.70725e-05 6.20588e-05 4.15122e-05
           3.99207e-05 7.67252e-05 7.46388e-05 5.02136e-05
           1.15269e-05 5.18698e-05 6.92611e-05 6.46380e-05
           2.90778e-07 1.86090e-05 3.92313e-05 4.48076e-05
           0.00000e+00 3.45821e-07 7.64134e-06 1.27386e-05

           0.00000e+00 0.00000e+00 0.00000e+00 0.00000e+00
           0.00000e+00 0.00000e+00 0.00000e+00 0.00000e+00
           0.00000e+00 0.00000e+00 0.00000e+00 0.00000e+00
           0.00000e+00 0.00000e+00 0.00000e+00 0.00000e+00
           0.00000e+00 0.00000e+00 0.00000e+00 0.00000e+00

           0.00000e+00 0.00000e+00 0.00000e+00 0.00000e+00
           0.00000e+00 0.00000e+00 0.00000e+00 0.00000e+00
           0.00000e+00 0.00000e+00 0.00000e+00 0.00000e+00
           0.00000e+00 0.00000e+00 0.00000e+00 0.00000e+00
           0.00000e+00 0.00000e+00 0.00000e+00 0.00000e+00

           6.73104e-05 9.59939e-05 6.23877e-05 4.37224e-05
           4.15222e-05 8.10149e-05 7.53457e-05 4.73879e-05
           1.62021e-05 5.62534e-05 6.87882e-05 6.52658e-05
           1.66951e-07 2.05519e-05 4.15370e-05 4.84919e-05
           0.00000e+00 7.41408e-07 8.30682e-06 1.67089e-05
        </DataArray>

        <DataArray type="Float32" Name="Tally_Value_1.00000e-09_lt_E[1]_lt_1.00000e-03_1.00000e+01_lt_T[2]_lt_2.00000e+01" format="ascii">
           5.06576e-05 6.19741e-05 4.51550e-05 3.27537e-05
           3.22140e-05 5.81224e-05 5.12117e-05 3.59895e-05
           1.08341e-05 3.97343e-05 5.12479e-05 4.37733e-05
           3.00502e-07 1.41274e-05 2.87590e-05 3.34380e-05
           0.00000e+00 4.53051e-07 6.65583e-06 1.04565e-05

           0.00000e+00 0.00000e+00 0.00000e+00 0.00000e+00
           0.00000e+00 0.00000e+00 0.00000e+00 0.00000e+00
           0.00000e+00 0.00000e+00 0.00000e+00 0.00000e+00
           0.00000e+00 0.00000e+00 0.00000e+00 0.00000e+00
           0.00000e+00 0.00000e+00 0.00000e+00 0.00000e+00

           0.00000e+00 0.00000e+00 0.00000e+00 0.00000e+00
           0.00000e+00 0.00000e+00 0.00000e+00 0.00000e+00
           0.00000e+00 0.00000e+00 0.00000e+00 0.00000e+00
           0.00000e+00 0.00000e+00 0.00000e+00 0.00000e+00
           0.00000e+00 0.00000e+00 0.00000e+00 0.00000e+00

           5.55212e-05 6.71679e-05 4.63776e-05 3.07271e-05
           3.06509e-05 6.11586e-05 5.08259e-05 3.39772e-05
           1.41539e-05 4.17216e-05 5.13352e-05 4.32546e-05
           3.62359e-07 1.41606e-05 3.37823e-05 3.53029e-05
           0.00000e+00 2.13937e-07 6.92112e-06 1.22045e-05
        </DataArray>

        <DataArray type="Float32" Name="Tally_Value_1.00000e-09_lt_E[1]_lt_1.00000e-03_T[total]" format="ascii">
           1.07505e-04 1.49047e-04 1.07214e-04 7.42659e-05
           7.21346e-05 1.34848e-04 1.25851e-04 8.62030e-05
           2.23610e-05 9.16041e-05 1.20509e-04 1.08411e-04
           5.91280e-07 3.27363e-05 6.79903e-05 7.82456e-05
           0.00000e+00 7.98872e-07 1.42972e-05 2.31951e-05

           0.00000e+00 0.00000e+00 0.00000e+00 0.00000e+00
           0.00000e+00 0.00000e+00 0.00000e+00 0.00000e+00
           0.00000e+00 0.00000e+00 0.00000e+00 0.00000e+00
           0.00000e+00 0.00000e+00 0.00000e+00 0.00000e+00
           0.00000e+00 0.00000e+00 0.00000e+00 0.00000e+00

           0.00000e+00 0.00000e+00 0.00000e+00 0.00000e+00
           0.00000e+00 0.00000e+00 0.00000e+00 0.00000e+00
           0.00000e+00 0.00000e+00 0.00000e+00 0.00000e+00
           0.00000e+00 0.00000e+00 0.00000e+00 0.00000e+00
           0.00000e+00 0.00000e+00 0.00000e+00 0.00000e+00

           1.22832e-04 1.63162e-04 1.08765e-04 7.44495e-05
           7.21731e-05 1.42173e-04 1.26172e-04 8.13652e-05
           3.03560e-05 9.79750e-05 1.20123e-04 1.08520e-04
           5.29310e-07 3.47125e-05 7.53193e-05 8.37948e-05
           0.00000e+00 9.55345e-07 1.52279e-05 2.89134e-05
        </DataArray>

        <DataArray type="Float32" Name="Tally_Value_1.00000e-03_lt_E[2]_lt_1.00000e+03_-1.00000e+36_lt_T[0]_lt_0.00000e+00" format="ascii">
           0.00000e+00 0.00000e+00 0.00000e+00 0.00000e+00
           0.00000e+00 0.00000e+00 0.00000e+00 0.00000e+00
           0.00000e+00 0.00000e+00 0.00000e+00 0.00000e+00
           0.00000e+00 0.00000e+00 0.00000e+00 0.00000e+00
           0.00000e+00 0.00000e+00 0.00000e+00 0.00000e+00

           0.00000e+00 0.00000e+00 0.00000e+00 0.00000e+00
           0.00000e+00 0.00000e+00 0.00000e+00 0.00000e+00
           0.00000e+00 0.00000e+00 0.00000e+00 0.00000e+00
           0.00000e+00 0.00000e+00 0.00000e+00 0.00000e+00
           0.00000e+00 0.00000e+00 0.00000e+00 0.00000e+00

           0.00000e+00 0.00000e+00 0.00000e+00 0.00000e+00
           0.00000e+00 0.00000e+00 0.00000e+00 0.00000e+00
           0.00000e+00 0.00000e+00 0.00000e+00 0.00000e+00
           0.00000e+00 0.00000e+00 0.00000e+00 0.00000e+00
           0.00000e+00 0.00000e+00 0.00000e+00 0.00000e+00

           0.00000e+00 0.00000e+00 0.00000e+00 0.00000e+00
           0.00000e+00 0.00000e+00 0.00000e+00 0.00000e+00
           0.00000e+00 0.00000e+00 0.00000e+00 0.00000e+00
           0.00000e+00 0.00000e+00 0.00000e+00 0.00000e+00
           0.00000e+00 0.00000e+00 0.00000e+00 0.00000e+00
        </DataArray>

        <DataArray type="Float32" Name="Tally_Value_1.00000e-03_lt_E[2]_lt_1.00000e+03_0.00000e+00_lt_T[1]_lt_1.00000e+01" format="ascii">
           7.05899e-04 1.31973e-03 2.68532e-03 3.38009e-03
           4.90867e-04 9.87431e-04 1.96808e-03 2.63779e-03
           1.86201e-04 6.04688e-04 1.04276e-03 1.42252e-03
           7.23815e-06 2.17955e-04 4.87155e-04 5.82931e-04
           0.00000e+00 8.81600e-06 1.05011e-04 1.83418e-04

           0.00000e+00 0.00000e+00 0.00000e+00 0.00000e+00
           0.00000e+00 0.00000e+00 0.00000e+00 0.00000e+00
           0.00000e+00 0.00000e+00 0.00000e+00 0.00000e+00
           0.00000e+00 0.00000e+00 0.00000e+00 0.00000e+00
           0.00000e+00 0.00000e+00 0.00000e+00 0.00000e+00

           0.00000e+00 0.00000e+00 0.00000e+00 0.00000e+00
           0.00000e+00 0.00000e+00 0.00000e+00 0.00000e+00
           0.00000e+00 0.00000e+00 0.00000e+00 0.00000e+00
           0.00000e+00 0.00000e+00 0.00000e+00 0.00000e+00
           0.00000e+00 0.00000e+00 0.00000e+00 0.00000e+00

           7.13510e-04 1.32989e-03 2.68580e-03 3.45909e-03
           5.14788e-04 1.00297e-03 1.94350e-03 2.65108e-03
           1.99694e-04 6.45046e-04 1.06372e-03 1.42336e-03
           6.93636e-06 2.21745e-04 4.68812e-04 5.78205e-04
           0.00000e+00 8.00061e-06 9.71859e-05 1.80705e-04
        </DataArray>

        <DataArray type="Float32" Name="Tally_Value_1.00000e-03_lt_E[2]_lt_1.00000e+03_1.00000e+01_lt_T[2]_lt_2.00000e+01" format="ascii">
           1.54072e-06 1.26334e-06 2.88972e-06 4.14114e-06
           3.90247e-07 1.03208e-06 2.10114e-06 4.17061e-06
           2.18720e-07 5.46481e-07 1.57909e-06 2.18983e-06
           0.00000e+00 1.04339e-07 8.14254e-07 7.67522e-07
           0.00000e+00 0.00000e+00 5.91649e-08 1.81050e-07

           0.00000e+00 0.00000e+00 0.00000e+00 0.00000e+00
           0.00000e+00 0.00000e+00 0.00000e+00 0.00000e+00
           0.00000e+00 0.00000e+00 0.00000e+00 0.00000e+00
           0.00000e+00 0.00000e+00 0.00000e+00 0.00000e+00
           0.00000e+00 0.00000e+00 0.00000e+00 0.00000e+00

           0.00000e+00 0.00000e+00 0.00000e+00 0.00000e+00
           0.00000e+00 0.00000e+00 0.00000e+00 0.00000e+00
           0.00000e+00 0.00000e+00 0.00000e+00 0.00000e+00
           0.00000e+00 0.00000e+00 0.00000e+00 0.00000e+00
           0.00000e+00 0.00000e+00 0.00000e+00 0.00000e+00

           1.74755e-06 1.87587e-06 3.43698e-06 4.96439e-06
           3.79488e-07 8.40488e-07 2.00152e-06 3.36404e-06
           6.61753e-08 6.78837e-07 1.33050e-06 1.55890e-06
           0.00000e+00 1.88767e-07 4.92231e-07 7.32124e-07
           0.00000e+00 0.00000e+00 3.21000e-07 2.98962e-07
        </DataArray>

        <DataArray type="Float32" Name="Tally_Value_1.00000e-03_lt_E[2]_lt_1.00000e+03_T[total]" format="ascii">
           7.07440e-04 1.32099e-03 2.68821e-03 3.38423e-03
           4.91257e-04 9.88463e-04 1.97018e-03 2.64196e-03
           1.86419e-04 6.05234e-04 1.04434e-03 1.42471e-03
           7.23815e-06 2.18059e-04 4.87970e-04 5.83698e-04
           0.00000e+00 8.81600e-06 1.05070e-04 1.83599e-04

           0.00000e+00 0.00000e+00 0.00000e+00 0.00000e+00
           0.00000e+00 0.00000e+00 0.00000e+00 0.00000e+00
           0.00000e+00 0.00000e+00 0.00000e+00 0.00000e+00
           0.00000e+00 0.00000e+00 0.00000e+00 0.00000e+00
           0.00000e+00 0.00000e+00 0.00000e+00 0.00000e+00

           0.00000e+00 0.00000e+00 0.00000e+00 0.00000e+00
           0.00000e+00 0.00000e+00 0.00000e+00 0.00000e+00
           0.00000e+00 0.00000e+00 0.00000e+00 0.00000e+00
           0.00000e+00 0.00000e+00 0.00000e+00 0.00000e+00
           0.00000e+00 0.00000e+00 0.00000e+00 0.00000e+00

           7.15258e-04 1.33177e-03 2.68924e-03 3.46406e-03
           5.15168e-04 1.00381e-03 1.94550e-03 2.65445e-03
           1.99760e-04 6.45724e-04 1.06505e-03 1.42491e-03
           6.93636e-06 2.21933e-04 4.69304e-04 5.78938e-04
           0.00000e+00 8.00061e-06 9.75069e-05 1.81004e-04
        </DataArray>

        <DataArray type="Float32" Name="Tally_Value_E[total]_-1.00000e+36_lt_T[0]_lt_0.00000e+00" format="ascii">
           0.00000e+00 0.00000e+00 0.00000e+00 0.00000e+00
           0.00000e+00 0.00000e+00 0.00000e+00 0.00000e+00
           0.00000e+00 0.00000e+00 0.00000e+00 0.00000e+00
           0.00000e+00 0.00000e+00 0.00000e+00 0.00000e+00
           0.00000e+00 0.00000e+00 0.00000e+00 0.00000e+00

           0.00000e+00 0.00000e+00 0.00000e+00 0.00000e+00
           0.00000e+00 0.00000e+00 0.00000e+00 0.00000e+00
           0.00000e+00 0.00000e+00 0.00000e+00 0.00000e+00
           0.00000e+00 0.00000e+00 0.00000e+00 0.00000e+00
           0.00000e+00 0.00000e+00 0.00000e+00 0.00000e+00

           0.00000e+00 0.00000e+00 0.00000e+00 0.00000e+00
           0.00000e+00 0.00000e+00 0.00000e+00 0.00000e+00
           0.00000e+00 0.00000e+00 0.00000e+00 0.00000e+00
           0.00000e+00 0.00000e+00 0.00000e+00 0.00000e+00
           0.00000e+00 0.00000e+00 0.00000e+00 0.00000e+00

           0.00000e+00 0.00000e+00 0.00000e+00 0.00000e+00
           0.00000e+00 0.00000e+00 0.00000e+00 0.00000e+00
           0.00000e+00 0.00000e+00 0.00000e+00 0.00000e+00
           0.00000e+00 0.00000e+00 0.00000e+00 0.00000e+00
           0.00000e+00 0.00000e+00 0.00000e+00 0.00000e+00
        </DataArray>

        <DataArray type="Float32" Name="Tally_Value_E[total]_0.00000e+00_lt_T[1]_lt_1.00000e+01" format="ascii">
           7.62747e-04 1.40680e-03 2.74738e-03 3.42160e-03
           5.30788e-04 1.06416e-03 2.04271e-03 2.68800e-03
           1.97728e-04 6.56557e-04 1.11202e-03 1.48715e-03
           7.52893e-06 2.36564e-04 5.26387e-04 6.27739e-04
           0.00000e+00 9.16182e-06 1.12653e-04 1.96157e-04

           0.00000e+00 0.00000e+00 0.00000e+00 0.00000e+00
           0.00000e+00 0.00000e+00 0.00000e+00 0.00000e+00
           0.00000e+00 0.00000e+00 0.00000e+00 0.00000e+00
           0.00000e+00 0.00000e+00 0.00000e+00 0.00000e+00
           0.00000e+00 0.00000e+00 0.00000e+00 0.00000e+00

           0.00000e+00 0.00000e+00 0.00000e+00 0.00000e+00
           0.00000e+00 0.00000e+00 0.00000e+00 0.00000e+00
           0.00000e+00 0.00000e+00 0.00000e+00 0.00000e+00
           0.00000e+00 0.00000e+00 0.00000e+00 0.00000e+00
           0.00000e+00 0.00000e+00 0.00000e+00 0.00000e+00

           7.80820e-04 1.42588e-03 2.74819e-03 3.50281e-03
           5.56310e-04 1.08399e-03 2.01885e-03 2.69847e-03
           2.15896e-04 7.01299e-04 1.13250e-03 1.48862e-03
           7.10331e-06 2.42297e-04 5.10349e-04 6.26697e-04
           0.00000e+00 8.74201e-06 1.05493e-04 1.97414e-04
        </DataArray>

        <DataArray type="Float32" Name="Tally_Value_E[total]_1.00000e+01_lt_T[2]_lt_2.00000e+01" format="ascii">
           5.21983e-05 6.32374e-05 4.80448e-05 3.68948e-05
           3.26042e-05 5.91545e-05 5.33128e-05 4.01601e-05
           1.10528e-05 4.02808e-05 5.28270e-05 4.59631e-05
           3.00502e-07 1.42317e-05 2.95733e-05 3.42055e-05
           0.00000e+00 4.53051e-07 6.71499e-06 1.06375e-05

           0.00000e+00 0.00000e+00 0.00000e+00 0.00000e+00
           0.00000e+00 0.00000e+00 0.00000e+00 0.00000e+00
           0.00000e+00 0.00000e+00 0.00000e+00 0.00000e+00
           0.00000e+00 0.00000e+00 0.00000e+00 0.00000e+00
           0.00000e+00 0.00000e+00 0.00000e+00 0.00000e+00

           0.00000e+00 0.00000e+00 0.00000e+00 0.00000e+00
           0.00000e+00 0.00000e+00 0.00000e+00 0.00000e+00
           0.00000e+00 0.00000e+00 0.00000e+00 0.00000e+00
           0.00000e+00 0.00000e+00 0.00000e+00 0.00000e+00
           0.00000e+00 0.00000e+00 0.00000e+00 0.00000e+00

           5.72687e-05 6.90438e-05 4.98146e-05 3.56915e-05
           3.10304e-05 6.19991e-05 5.28274e-05 3.73413e-05
           1.42200e-05 4.24004e-05 5.26657e-05 4.48135e-05
           3.62359e-07 1.43493e-05 3.42745e-05 3.60350e-05
           0.00000e+00 2.13937e-07 7.24212e-06 1.25035e-05
        </DataArray>

        <DataArray type="Float32" Name="Tally_Value_E[total]_T[total]" format="ascii">
           8.14945e-04 1.47004e-03 2.79543e-03 3.45850e-03
           5.63392e-04 1.12331e-03 2.09603e-03 2.72816e-03
           2.08780e-04 6.96838e-04 1.16484e-03 1.53312e-03
           7.82943e-06 2.50796e-04 5.55960e-04 6.61944e-04
           0.00000e+00 9.61487e-06 1.19368e-04 2.06794e-04

           0.00000e+00 0.00000e+00 0.00000e+00 0.00000e+00
           0.00000e+00 0.00000e+00 0.00000e+00 0.00000e+00
           0.00000e+00 0.00000e+00 0.00000e+00 0.00000e+00
           0.00000e+00 0.00000e+00 0.00000e+00 0.00000e+00
           0.00000e+00 0.00000e+00 0.00000e+00 0.00000e+00

           0.00000e+00 0.00000e+00 0.00000e+00 0.00000e+00
           0.00000e+00 0.00000e+00 0.00000e+00 0.00000e+00
           0.00000e+00 0.00000e+00 0.00000e+00 0.00000e+00
           0.00000e+00 0.00000e+00 0.00000e+00 0.00000e+00
           0.00000e+00 0.00000e+00 0.00000e+00 0.00000e+00

           8.38089e-04 1.49493e-03 2.79801e-03 3.53850e-03
           5.87341e-04 1.14599e-03 2.07167e-03 2.73581e-03
           2.30116e-04 7.43699e-04 1.18517e-03 1.53343e-03
           7.46567e-06 2.56646e-04 5.44623e-04 6.62732e-04
           0.00000e+00 8.95595e-06 1.12735e-04 2.09918e-04
        </DataArray>
        <DataArray type="Float32" Name="Tally_Error_0.00000e+00_lt_E[0]_lt_1.00000e-09_-1.00000e+36_lt_T[0]_lt_0.00000e+00" format="ascii">
           0.00000e+00 0.00000e+00 0.00000e+00 0.00000e+00
           0.00000e+00 0.00000e+00 0.00000e+00 0.00000e+00
           0.00000e+00 0.00000e+00 0.00000e+00 0.00000e+00
           0.00000e+00 0.00000e+00 0.00000e+00 0.00000e+00
           0.00000e+00 0.00000e+00 0.00000e+00 0.00000e+00

           0.00000e+00 0.00000e+00 0.00000e+00 0.00000e+00
           0.00000e+00 0.00000e+00 0.00000e+00 0.00000e+00
           0.00000e+00 0.00000e+00 0.00000e+00 0.00000e+00
           0.00000e+00 0.00000e+00 0.00000e+00 0.00000e+00
           0.00000e+00 0.00000e+00 0.00000e+00 0.00000e+00

           0.00000e+00 0.00000e+00 0.00000e+00 0.00000e+00
           0.00000e+00 0.00000e+00 0.00000e+00 0.00000e+00
           0.00000e+00 0.00000e+00 0.00000e+00 0.00000e+00
           0.00000e+00 0.00000e+00 0.00000e+00 0.00000e+00
           0.00000e+00 0.00000e+00 0.00000e+00 0.00000e+00
