<?xml version="1.0"?>
<VTKFile type="StructuredGrid" version="0.1">
  <StructuredGrid WholeExtent="0 4 0 5 0 4">
    <Piece Extent="0 4 0 5 0 4">
      <Points>
        <DataArray type="Float32" format="ascii" NumberOfComponents="3">
           0.00000e+00  0.00000e+00  0.00000e+00
           2.50000e+00  0.00000e+00  0.00000e+00
           5.00000e+00  0.00000e+00  0.00000e+00
           7.50000e+00  0.00000e+00  0.00000e+00
           1.00000e+01  0.00000e+00  0.00000e+00
           0.00000e+00  0.00000e+00  2.00000e+00
           2.50000e+00  0.00000e+00  2.00000e+00
           5.00000e+00  0.00000e+00  2.00000e+00
           7.50000e+00  0.00000e+00  2.00000e+00
           1.00000e+01  0.00000e+00  2.00000e+00
           0.00000e+00  0.00000e+00  4.00000e+00
           2.50000e+00  0.00000e+00  4.00000e+00
           5.00000e+00  0.00000e+00  4.00000e+00
           7.50000e+00  0.00000e+00  4.00000e+00
           1.00000e+01  0.00000e+00  4.00000e+00
           0.00000e+00  0.00000e+00  6.00000e+00
           2.50000e+00  0.00000e+00  6.00000e+00
           5.00000e+00  0.00000e+00  6.00000e+00
           7.50000e+00  0.00000e+00  6.00000e+00
           1.00000e+01  0.00000e+00  6.00000e+00
           0.00000e+00  0.00000e+00  8.00000e+00
           2.50000e+00  0.00000e+00  8.00000e+00
           5.00000e+00  0.00000e+00  8.00000e+00
           7.50000e+00  0.00000e+00  8.00000e+00
           1.00000e+01  0.00000e+00  8.00000e+00
           0.00000e+00  0.00000e+00  1.00000e+01
           2.50000e+00  0.00000e+00  1.00000e+01
           5.00000e+00  0.00000e+00  1.00000e+01
           7.50000e+00  0.00000e+00  1.00000e+01
           1.00000e+01  0.00000e+00  1.00000e+01
           0.00000e+00  0.00000e+00  0.00000e+00
           1.53081e-16  2.50000e+00  0.00000e+00
           3.06162e-16  5.00000e+00  0.00000e+00
           4.59243e-16  7.50000e+00  0.00000e+00
           6.12323e-16  1.00000e+01  0.00000e+00
           0.00000e+00  0.00000e+00  2.00000e+00
           1.53081e-16  2.50000e+00  2.00000e+00
           3.06162e-16  5.00000e+00  2.00000e+00
           4.59243e-16  7.50000e+00  2.00000e+00
           6.12323e-16  1.00000e+01  2.00000e+00
           0.00000e+00  0.00000e+00  4.00000e+00
           1.53081e-16  2.50000e+00  4.00000e+00
           3.06162e-16  5.00000e+00  4.00000e+00
           4.59243e-16  7.50000e+00  4.00000e+00
           6.12323e-16  1.00000e+01  4.00000e+00
           0.00000e+00  0.00000e+00  6.00000e+00
           1.53081e-16  2.50000e+00  6.00000e+00
           3.06162e-16  5.00000e+00  6.00000e+00
           4.59243e-16  7.50000e+00  6.00000e+00
           6.12323e-16  1.00000e+01  6.00000e+00
           0.00000e+00  0.00000e+00  8.00000e+00
           1.53081e-16  2.50000e+00  8.00000e+00
           3.06162e-16  5.00000e+00  8.00000e+00
           4.59243e-16  7.50000e+00  8.00000e+00
           6.12323e-16  1.00000e+01  8.00000e+00
           0.00000e+00  0.00000e+00  1.00000e+01
           1.53081e-16  2.50000e+00  1.00000e+01
           3.06162e-16  5.00000e+00  1.00000e+01
           4.59243e-16  7.50000e+00  1.00000e+01
           6.12323e-16  1.00000e+01  1.00000e+01
          -0.00000e+00  0.00000e+00  0.00000e+00
          -2.50000e+00  3.06162e-16  0.00000e+00
          -5.00000e+00  6.12323e-16  0.00000e+00
          -7.50000e+00  9.18485e-16  0.00000e+00
          -1.00000e+01  1.22465e-15  0.00000e+00
          -0.00000e+00  0.00000e+00  2.00000e+00
          -2.50000e+00  3.06162e-16  2.00000e+00
          -5.00000e+00  6.12323e-16  2.00000e+00
          -7.50000e+00  9.18485e-16  2.00000e+00
          -1.00000e+01  1.22465e-15  2.00000e+00
          -0.00000e+00  0.00000e+00  4.00000e+00
          -2.50000e+00  3.06162e-16  4.00000e+00
          -5.00000e+00  6.12323e-16  4.00000e+00
          -7.50000e+00  9.18485e-16  4.00000e+00
          -1.00000e+01  1.22465e-15  4.00000e+00
          -0.00000e+00  0.00000e+00  6.00000e+00
          -2.50000e+00  3.06162e-16  6.00000e+00
          -5.00000e+00  6.12323e-16  6.00000e+00
          -7.50000e+00  9.18485e-16  6.00000e+00
          -1.00000e+01  1.22465e-15  6.00000e+00
          -0.00000e+00  0.00000e+00  8.00000e+00
          -2.50000e+00  3.06162e-16  8.00000e+00
          -5.00000e+00  6.12323e-16  8.00000e+00
          -7.50000e+00  9.18485e-16  8.00000e+00
          -1.00000e+01  1.22465e-15  8.00000e+00
          -0.00000e+00  0.00000e+00  1.00000e+01
          -2.50000e+00  3.06162e-16  1.00000e+01
          -5.00000e+00  6.12323e-16  1.00000e+01
          -7.50000e+00  9.18485e-16  1.00000e+01
          -1.00000e+01  1.22465e-15  1.00000e+01
          -0.00000e+00 -0.00000e+00  0.00000e+00
          -4.59243e-16 -2.50000e+00  0.00000e+00
          -9.18485e-16 -5.00000e+00  0.00000e+00
          -1.37773e-15 -7.50000e+00  0.00000e+00
          -1.83697e-15 -1.00000e+01  0.00000e+00
          -0.00000e+00 -0.00000e+00  2.00000e+00
          -4.59243e-16 -2.50000e+00  2.00000e+00
          -9.18485e-16 -5.00000e+00  2.00000e+00
          -1.37773e-15 -7.50000e+00  2.00000e+00
          -1.83697e-15 -1.00000e+01  2.00000e+00
          -0.00000e+00 -0.00000e+00  4.00000e+00
          -4.59243e-16 -2.50000e+00  4.00000e+00
          -9.18485e-16 -5.00000e+00  4.00000e+00
          -1.37773e-15 -7.50000e+00  4.00000e+00
          -1.83697e-15 -1.00000e+01  4.00000e+00
          -0.00000e+00 -0.00000e+00  6.00000e+00
          -4.59243e-16 -2.50000e+00  6.00000e+00
          -9.18485e-16 -5.00000e+00  6.00000e+00
          -1.37773e-15 -7.50000e+00  6.00000e+00
          -1.83697e-15 -1.00000e+01  6.00000e+00
          -0.00000e+00 -0.00000e+00  8.00000e+00
          -4.59243e-16 -2.50000e+00  8.00000e+00
          -9.18485e-16 -5.00000e+00  8.00000e+00
          -1.37773e-15 -7.50000e+00  8.00000e+00
          -1.83697e-15 -1.00000e+01  8.00000e+00
          -0.00000e+00 -0.00000e+00  1.00000e+01
          -4.59243e-16 -2.50000e+00  1.00000e+01
          -9.18485e-16 -5.00000e+00  1.00000e+01
          -1.37773e-15 -7.50000e+00  1.00000e+01
          -1.83697e-15 -1.00000e+01  1.00000e+01
           0.00000e+00 -0.00000e+00  0.00000e+00
           2.50000e+00 -6.12323e-16  0.00000e+00
           5.00000e+00 -1.22465e-15  0.00000e+00
           7.50000e+00 -1.83697e-15  0.00000e+00
           1.00000e+01 -2.44929e-15  0.00000e+00
           0.00000e+00 -0.00000e+00  2.00000e+00
           2.50000e+00 -6.12323e-16  2.00000e+00
           5.00000e+00 -1.22465e-15  2.00000e+00
           7.50000e+00 -1.83697e-15  2.00000e+00
           1.00000e+01 -2.44929e-15  2.00000e+00
           0.00000e+00 -0.00000e+00  4.00000e+00
           2.50000e+00 -6.12323e-16  4.00000e+00
           5.00000e+00 -1.22465e-15  4.00000e+00
           7.50000e+00 -1.83697e-15  4.00000e+00
           1.00000e+01 -2.44929e-15  4.00000e+00
           0.00000e+00 -0.00000e+00  6.00000e+00
           2.50000e+00 -6.12323e-16  6.00000e+00
           5.00000e+00 -1.22465e-15  6.00000e+00
           7.50000e+00 -1.83697e-15  6.00000e+00
           1.00000e+01 -2.44929e-15  6.00000e+00
           0.00000e+00 -0.00000e+00  8.00000e+00
           2.50000e+00 -6.12323e-16  8.00000e+00
           5.00000e+00 -1.22465e-15  8.00000e+00
           7.50000e+00 -1.83697e-15  8.00000e+00
           1.00000e+01 -2.44929e-15  8.00000e+00
           0.00000e+00 -0.00000e+00  1.00000e+01
           2.50000e+00 -6.12323e-16  1.00000e+01
           5.00000e+00 -1.22465e-15  1.00000e+01
           7.50000e+00 -1.83697e-15  1.00000e+01
           1.00000e+01 -2.44929e-15  1.00000e+01
        </DataArray>
      </Points>
      <CellData Scalars="cell_scalars">
        <DataArray type="Float32" Name="Tally_Value" format="ascii">
           1.29971e-03 2.13521e-03 3.22689e-03 3.74338e-03
           9.33638e-04 1.75760e-03 2.59390e-03 3.05059e-03
           3.32328e-04 1.12721e-03 1.67990e-03 1.95414e-03
           1.08448e-05 4.04261e-04 8.97697e-04 1.00569e-03
           0.00000e+00 1.40749e-05 1.88594e-04 3.26220e-04

           0.00000e+00 0.00000e+00 0.00000e+00 0.00000e+00
           0.00000e+00 0.00000e+00 0.00000e+00 0.00000e+00
           0.00000e+00 0.00000e+00 0.00000e+00 0.00000e+00
           0.00000e+00 0.00000e+00 0.00000e+00 0.00000e+00
           0.00000e+00 0.00000e+00 0.00000e+00 0.00000e+00

           0.00000e+00 0.00000e+00 0.00000e+00 0.00000e+00
           0.00000e+00 0.00000e+00 0.00000e+00 0.00000e+00
           0.00000e+00 0.00000e+00 0.00000e+00 0.00000e+00
           0.00000e+00 0.00000e+00 0.00000e+00 0.00000e+00
           0.00000e+00 0.00000e+00 0.00000e+00 0.00000e+00

           1.33402e-03 2.15508e-03 3.20785e-03 3.82487e-03
           9.51454e-04 1.77312e-03 2.55125e-03 3.05182e-03
           3.56788e-04 1.15882e-03 1.69810e-03 1.93464e-03
           1.00468e-05 4.10798e-04 8.67932e-04 1.02470e-03
           0.00000e+00 1.30832e-05 1.77343e-04 3.35444e-04
        </DataArray>
        <DataArray type="Float32" Name="Tally_Error" format="ascii">
           2.62199e-02 1.49034e-02 8.88046e-03 6.58566e-03
           2.91036e-02 1.64486e-02 1.02405e-02 7.50327e-03
           3.71132e-02 1.89799e-02 1.31671e-02 1.01071e-02
           1.06424e-01 2.55268e-02 1.71963e-02 1.41236e-02
           0.00000e+00 6.80957e-02 2.65780e-02 2.05437e-02

           0.00000e+00 0.00000e+00 0.00000e+00 0.00000e+00
           0.00000e+00 0.00000e+00 0.00000e+00 0.00000e+00
           0.00000e+00 0.00000e+00 0.00000e+00 0.00000e+00
           0.00000e+00 0.00000e+00 0.00000e+00 0.00000e+00
           0.00000e+00 0.00000e+00 0.00000e+00 0.00000e+00

           0.00000e+00 0.00000e+00 0.00000e+00 0.00000e+00
           0.00000e+00 0.00000e+00 0.00000e+00 0.00000e+00
           0.00000e+00 0.00000e+00 0.00000e+00 0.00000e+00
           0.00000e+00 0.00000e+00 0.00000e+00 0.00000e+00
           0.00000e+00 0.00000e+00 0.00000e+00 0.00000e+00

           2.58072e-02 1.49515e-02 8.80018e-03 6.54774e-03
           2.86784e-02 1.62106e-02 1.01813e-02 7.52171e-03
           3.74495e-02 1.88706e-02 1.32279e-02 1.00159e-02
           1.07421e-01 2.60730e-02 1.73325e-02 1.43154e-02
           0.00000e+00 6.77273e-02 2.70584e-02 2.04160e-02
        </DataArray>
      </CellData>
    </Piece>
  </StructuredGrid>
</VTKFile>
