<?xml version="1.0"?>
<VTKFile type="StructuredGrid" version="0.1">
  <StructuredGrid WholeExtent="0 5 0 5 0 5">
    <Piece Extent="0 5 0 5 0 5">
      <Points>
        <DataArray type="Float32" format="ascii" NumberOfComponents="3">
          -1.00000e+01 -1.00000e+01 -1.00000e+01
          -6.00000e+00 -1.00000e+01 -1.00000e+01
          -2.00000e+00 -1.00000e+01 -1.00000e+01
           2.00000e+00 -1.00000e+01 -1.00000e+01
           6.00000e+00 -1.00000e+01 -1.00000e+01
           1.00000e+01 -1.00000e+01 -1.00000e+01
          -1.00000e+01 -6.00000e+00 -1.00000e+01
          -6.00000e+00 -6.00000e+00 -1.00000e+01
          -2.00000e+00 -6.00000e+00 -1.00000e+01
           2.00000e+00 -6.00000e+00 -1.00000e+01
           6.00000e+00 -6.00000e+00 -1.00000e+01
           1.00000e+01 -6.00000e+00 -1.00000e+01
          -1.00000e+01 -2.00000e+00 -1.00000e+01
          -6.00000e+00 -2.00000e+00 -1.00000e+01
          -2.00000e+00 -2.00000e+00 -1.00000e+01
           2.00000e+00 -2.00000e+00 -1.00000e+01
           6.00000e+00 -2.00000e+00 -1.00000e+01
           1.00000e+01 -2.00000e+00 -1.00000e+01
          -1.00000e+01  2.00000e+00 -1.00000e+01
          -6.00000e+00  2.00000e+00 -1.00000e+01
          -2.00000e+00  2.00000e+00 -1.00000e+01
           2.00000e+00  2.00000e+00 -1.00000e+01
           6.00000e+00  2.00000e+00 -1.00000e+01
           1.00000e+01  2.00000e+00 -1.00000e+01
          -1.00000e+01  6.00000e+00 -1.00000e+01
          -6.00000e+00  6.00000e+00 -1.00000e+01
          -2.00000e+00  6.00000e+00 -1.00000e+01
           2.00000e+00  6.00000e+00 -1.00000e+01
           6.00000e+00  6.00000e+00 -1.00000e+01
           1.00000e+01  6.00000e+00 -1.00000e+01
          -1.00000e+01  1.00000e+01 -1.00000e+01
          -6.00000e+00  1.00000e+01 -1.00000e+01
          -2.00000e+00  1.00000e+01 -1.00000e+01
           2.00000e+00  1.00000e+01 -1.00000e+01
           6.00000e+00  1.00000e+01 -1.00000e+01
           1.00000e+01  1.00000e+01 -1.00000e+01
          -1.00000e+01 -1.00000e+01 -6.00000e+00
          -6.00000e+00 -1.00000e+01 -6.00000e+00
          -2.00000e+00 -1.00000e+01 -6.00000e+00
           2.00000e+00 -1.00000e+01 -6.00000e+00
           6.00000e+00 -1.00000e+01 -6.00000e+00
           1.00000e+01 -1.00000e+01 -6.00000e+00
          -1.00000e+01 -6.00000e+00 -6.00000e+00
          -6.00000e+00 -6.00000e+00 -6.00000e+00
          -2.00000e+00 -6.00000e+00 -6.00000e+00
           2.00000e+00 -6.00000e+00 -6.00000e+00
           6.00000e+00 -6.00000e+00 -6.00000e+00
           1.00000e+01 -6.00000e+00 -6.00000e+00
          -1.00000e+01 -2.00000e+00 -6.00000e+00
          -6.00000e+00 -2.00000e+00 -6.00000e+00
          -2.00000e+00 -2.00000e+00 -6.00000e+00
           2.00000e+00 -2.00000e+00 -6.00000e+00
           6.00000e+00 -2.00000e+00 -6.00000e+00
           1.00000e+01 -2.00000e+00 -6.00000e+00
          -1.00000e+01  2.00000e+00 -6.00000e+00
          -6.00000e+00  2.00000e+00 -6.00000e+00
          -2.00000e+00  2.00000e+00 -6.00000e+00
           2.00000e+00  2.00000e+00 -6.00000e+00
           6.00000e+00  2.00000e+00 -6.00000e+00
           1.00000e+01  2.00000e+00 -6.00000e+00
          -1.00000e+01  6.00000e+00 -6.00000e+00
          -6.00000e+00  6.00000e+00 -6.00000e+00
          -2.00000e+00  6.00000e+00 -6.00000e+00
           2.00000e+00  6.00000e+00 -6.00000e+00
           6.00000e+00  6.00000e+00 -6.00000e+00
           1.00000e+01  6.00000e+00 -6.00000e+00
          -1.00000e+01  1.00000e+01 -6.00000e+00
          -6.00000e+00  1.00000e+01 -6.00000e+00
          -2.00000e+00  1.00000e+01 -6.00000e+00
           2.00000e+00  1.00000e+01 -6.00000e+00
           6.00000e+00  1.00000e+01 -6.00000e+00
           1.00000e+01  1.00000e+01 -6.00000e+00
          -1.00000e+01 -1.00000e+01 -2.00000e+00
          -6.00000e+00 -1.00000e+01 -2.00000e+00
          -2.00000e+00 -1.00000e+01 -2.00000e+00
           2.00000e+00 -1.00000e+01 -2.00000e+00
           6.00000e+00 -1.00000e+01 -2.00000e+00
           1.00000e+01 -1.00000e+01 -2.00000e+00
          -1.00000e+01 -6.00000e+00 -2.00000e+00
          -6.00000e+00 -6.00000e+00 -2.00000e+00
          -2.00000e+00 -6.00000e+00 -2.00000e+00
           2.00000e+00 -6.00000e+00 -2.00000e+00
           6.00000e+00 -6.00000e+00 -2.00000e+00
           1.00000e+01 -6.00000e+00 -2.00000e+00
          -1.00000e+01 -2.00000e+00 -2.00000e+00
          -6.00000e+00 -2.00000e+00 -2.00000e+00
          -2.00000e+00 -2.00000e+00 -2.00000e+00
           2.00000e+00 -2.00000e+00 -2.00000e+00
           6.00000e+00 -2.00000e+00 -2.00000e+00
           1.00000e+01 -2.00000e+00 -2.00000e+00
          -1.00000e+01  2.00000e+00 -2.00000e+00
          -6.00000e+00  2.00000e+00 -2.00000e+00
          -2.00000e+00  2.00000e+00 -2.00000e+00
           2.00000e+00  2.00000e+00 -2.00000e+00
           6.00000e+00  2.00000e+00 -2.00000e+00
           1.00000e+01  2.00000e+00 -2.00000e+00
          -1.00000e+01  6.00000e+00 -2.00000e+00
          -6.00000e+00  6.00000e+00 -2.00000e+00
          -2.00000e+00  6.00000e+00 -2.00000e+00
           2.00000e+00  6.00000e+00 -2.00000e+00
           6.00000e+00  6.00000e+00 -2.00000e+00
           1.00000e+01  6.00000e+00 -2.00000e+00
          -1.00000e+01  1.00000e+01 -2.00000e+00
          -6.00000e+00  1.00000e+01 -2.00000e+00
          -2.00000e+00  1.00000e+01 -2.00000e+00
           2.00000e+00  1.00000e+01 -2.00000e+00
           6.00000e+00  1.00000e+01 -2.00000e+00
           1.00000e+01  1.00000e+01 -2.00000e+00
          -1.00000e+01 -1.00000e+01  2.00000e+00
          -6.00000e+00 -1.00000e+01  2.00000e+00
          -2.00000e+00 -1.00000e+01  2.00000e+00
           2.00000e+00 -1.00000e+01  2.00000e+00
           6.00000e+00 -1.00000e+01  2.00000e+00
           1.00000e+01 -1.00000e+01  2.00000e+00
          -1.00000e+01 -6.00000e+00  2.00000e+00
          -6.00000e+00 -6.00000e+00  2.00000e+00
          -2.00000e+00 -6.00000e+00  2.00000e+00
           2.00000e+00 -6.00000e+00  2.00000e+00
           6.00000e+00 -6.00000e+00  2.00000e+00
           1.00000e+01 -6.00000e+00  2.00000e+00
          -1.00000e+01 -2.00000e+00  2.00000e+00
          -6.00000e+00 -2.00000e+00  2.00000e+00
          -2.00000e+00 -2.00000e+00  2.00000e+00
           2.00000e+00 -2.00000e+00  2.00000e+00
           6.00000e+00 -2.00000e+00  2.00000e+00
           1.00000e+01 -2.00000e+00  2.00000e+00
          -1.00000e+01  2.00000e+00  2.00000e+00
          -6.00000e+00  2.00000e+00  2.00000e+00
          -2.00000e+00  2.00000e+00  2.00000e+00
           2.00000e+00  2.00000e+00  2.00000e+00
           6.00000e+00  2.00000e+00  2.00000e+00
           1.00000e+01  2.00000e+00  2.00000e+00
          -1.00000e+01  6.00000e+00  2.00000e+00
          -6.00000e+00  6.00000e+00  2.00000e+00
          -2.00000e+00  6.00000e+00  2.00000e+00
           2.00000e+00  6.00000e+00  2.00000e+00
           6.00000e+00  6.00000e+00  2.00000e+00
           1.00000e+01  6.00000e+00  2.00000e+00
          -1.00000e+01  1.00000e+01  2.00000e+00
          -6.00000e+00  1.00000e+01  2.00000e+00
          -2.00000e+00  1.00000e+01  2.00000e+00
           2.00000e+00  1.00000e+01  2.00000e+00
           6.00000e+00  1.00000e+01  2.00000e+00
           1.00000e+01  1.00000e+01  2.00000e+00
          -1.00000e+01 -1.00000e+01  6.00000e+00
          -6.00000e+00 -1.00000e+01  6.00000e+00
          -2.00000e+00 -1.00000e+01  6.00000e+00
           2.00000e+00 -1.00000e+01  6.00000e+00
           6.00000e+00 -1.00000e+01  6.00000e+00
           1.00000e+01 -1.00000e+01  6.00000e+00
          -1.00000e+01 -6.00000e+00  6.00000e+00
          -6.00000e+00 -6.00000e+00  6.00000e+00
          -2.00000e+00 -6.00000e+00  6.00000e+00
           2.00000e+00 -6.00000e+00  6.00000e+00
           6.00000e+00 -6.00000e+00  6.00000e+00
           1.00000e+01 -6.00000e+00  6.00000e+00
          -1.00000e+01 -2.00000e+00  6.00000e+00
          -6.00000e+00 -2.00000e+00  6.00000e+00
          -2.00000e+00 -2.00000e+00  6.00000e+00
           2.00000e+00 -2.00000e+00  6.00000e+00
           6.00000e+00 -2.00000e+00  6.00000e+00
           1.00000e+01 -2.00000e+00  6.00000e+00
          -1.00000e+01  2.00000e+00  6.00000e+00
          -6.00000e+00  2.00000e+00  6.00000e+00
          -2.00000e+00  2.00000e+00  6.00000e+00
           2.00000e+00  2.00000e+00  6.00000e+00
           6.00000e+00  2.00000e+00  6.00000e+00
           1.00000e+01  2.00000e+00  6.00000e+00
          -1.00000e+01  6.00000e+00  6.00000e+00
          -6.00000e+00  6.00000e+00  6.00000e+00
          -2.00000e+00  6.00000e+00  6.00000e+00
           2.00000e+00  6.00000e+00  6.00000e+00
           6.00000e+00  6.00000e+00  6.00000e+00
           1.00000e+01  6.00000e+00  6.00000e+00
          -1.00000e+01  1.00000e+01  6.00000e+00
          -6.00000e+00  1.00000e+01  6.00000e+00
          -2.00000e+00  1.00000e+01  6.00000e+00
           2.00000e+00  1.00000e+01  6.00000e+00
           6.00000e+00  1.00000e+01  6.00000e+00
           1.00000e+01  1.00000e+01  6.00000e+00
          -1.00000e+01 -1.00000e+01  1.00000e+01
          -6.00000e+00 -1.00000e+01  1.00000e+01
          -2.00000e+00 -1.00000e+01  1.00000e+01
           2.00000e+00 -1.00000e+01  1.00000e+01
           6.00000e+00 -1.00000e+01  1.00000e+01
           1.00000e+01 -1.00000e+01  1.00000e+01
          -1.00000e+01 -6.00000e+00  1.00000e+01
          -6.00000e+00 -6.00000e+00  1.00000e+01
          -2.00000e+00 -6.00000e+00  1.00000e+01
           2.00000e+00 -6.00000e+00  1.00000e+01
           6.00000e+00 -6.00000e+00  1.00000e+01
           1.00000e+01 -6.00000e+00  1.00000e+01
          -1.00000e+01 -2.00000e+00  1.00000e+01
          -6.00000e+00 -2.00000e+00  1.00000e+01
          -2.00000e+00 -2.00000e+00  1.00000e+01
           2.00000e+00 -2.00000e+00  1.00000e+01
           6.00000e+00 -2.00000e+00  1.00000e+01
           1.00000e+01 -2.00000e+00  1.00000e+01
          -1.00000e+01  2.00000e+00  1.00000e+01
          -6.00000e+00  2.00000e+00  1.00000e+01
          -2.00000e+00  2.00000e+00  1.00000e+01
           2.00000e+00  2.00000e+00  1.00000e+01
           6.00000e+00  2.00000e+00  1.00000e+01
           1.00000e+01  2.00000e+00  1.00000e+01
          -1.00000e+01  6.00000e+00  1.00000e+01
          -6.00000e+00  6.00000e+00  1.00000e+01
          -2.00000e+00  6.00000e+00  1.00000e+01
           2.00000e+00  6.00000e+00  1.00000e+01
           6.00000e+00  6.00000e+00  1.00000e+01
           1.00000e+01  6.00000e+00  1.00000e+01
          -1.00000e+01  1.00000e+01  1.00000e+01
          -6.00000e+00  1.00000e+01  1.00000e+01
          -2.00000e+00  1.00000e+01  1.00000e+01
           2.00000e+00  1.00000e+01  1.00000e+01
           6.00000e+00  1.00000e+01  1.00000e+01
           1.00000e+01  1.00000e+01  1.00000e+01
        </DataArray>
      </Points>
      <CellData Scalars="cell_scalars">
        <DataArray type="Float32" Name="Tally_Value_0.00000e+00_lt_E[0]_lt_1.00000e-09_-1.00000e+36_lt_T[0]_lt_0.00000e+00" format="ascii">
           0.00000e+00 0.00000e+00 0.00000e+00 0.00000e+00 0.00000e+00
           0.00000e+00 0.00000e+00 0.00000e+00 0.00000e+00 0.00000e+00
           0.00000e+00 0.00000e+00 0.00000e+00 0.00000e+00 0.00000e+00
           0.00000e+00 0.00000e+00 0.00000e+00 0.00000e+00 0.00000e+00
           0.00000e+00 0.00000e+00 0.00000e+00 0.00000e+00 0.00000e+00

           0.00000e+00 0.00000e+00 0.00000e+00 0.00000e+00 0.00000e+00
           0.00000e+00 0.00000e+00 0.00000e+00 0.00000e+00 0.00000e+00
           0.00000e+00 0.00000e+00 0.00000e+00 0.00000e+00 0.00000e+00
           0.00000e+00 0.00000e+00 0.00000e+00 0.00000e+00 0.00000e+00
           0.00000e+00 0.00000e+00 0.00000e+00 0.00000e+00 0.00000e+00

           0.00000e+00 0.00000e+00 0.00000e+00 0.00000e+00 0.00000e+00
           0.00000e+00 0.00000e+00 0.00000e+00 0.00000e+00 0.00000e+00
           0.00000e+00 0.00000e+00 0.00000e+00 0.00000e+00 0.00000e+00
           0.00000e+00 0.00000e+00 0.00000e+00 0.00000e+00 0.00000e+00
           0.00000e+00 0.00000e+00 0.00000e+00 0.00000e+00 0.00000e+00

           0.00000e+00 0.00000e+00 0.00000e+00 0.00000e+00 0.00000e+00
           0.00000e+00 0.00000e+00 0.00000e+00 0.00000e+00 0.00000e+00
           0.00000e+00 0.00000e+00 0.00000e+00 0.00000e+00 0.00000e+00
           0.00000e+00 0.00000e+00 0.00000e+00 0.00000e+00 0.00000e+00
           0.00000e+00 0.00000e+00 0.00000e+00 0.00000e+00 0.00000e+00

           0.00000e+00 0.00000e+00 0.00000e+00 0.00000e+00 0.00000e+00
           0.00000e+00 0.00000e+00 0.00000e+00 0.00000e+00 0.00000e+00
           0.00000e+00 0.00000e+00 0.00000e+00 0.00000e+00 0.00000e+00
           0.00000e+00 0.00000e+00 0.00000e+00 0.00000e+00 0.00000e+00
           0.00000e+00 0.00000e+00 0.00000e+00 0.00000e+00 0.00000e+00
        </DataArray>

        <DataArray type="Float32" Name="Tally_Value_0.00000e+00_lt_E[0]_lt_1.00000e-09_0.00000e+00_lt_T[1]_lt_1.00000e+01" format="ascii">
           0.00000e+00 0.00000e+00 0.00000e+00 0.00000e+00 0.00000e+00
           0.00000e+00 0.00000e+00 0.00000e+00 0.00000e+00 0.00000e+00
           0.00000e+00 0.00000e+00 0.00000e+00 0.00000e+00 0.00000e+00
           0.00000e+00 0.00000e+00 0.00000e+00 0.00000e+00 0.00000e+00
           0.00000e+00 0.00000e+00 0.00000e+00 0.00000e+00 0.00000e+00

           0.00000e+00 0.00000e+00 0.00000e+00 0.00000e+00 0.00000e+00
           0.00000e+00 0.00000e+00 0.00000e+00 0.00000e+00 0.00000e+00
           0.00000e+00 0.00000e+00 0.00000e+00 0.00000e+00 0.00000e+00
           0.00000e+00 0.00000e+00 0.00000e+00 0.00000e+00 0.00000e+00
           0.00000e+00 0.00000e+00 0.00000e+00 0.00000e+00 0.00000e+00

           0.00000e+00 0.00000e+00 0.00000e+00 0.00000e+00 0.00000e+00
           0.00000e+00 0.00000e+00 0.00000e+00 0.00000e+00 0.00000e+00
           0.00000e+00 0.00000e+00 0.00000e+00 0.00000e+00 0.00000e+00
           0.00000e+00 0.00000e+00 0.00000e+00 0.00000e+00 0.00000e+00
           0.00000e+00 0.00000e+00 0.00000e+00 0.00000e+00 0.00000e+00

           0.00000e+00 0.00000e+00 0.00000e+00 0.00000e+00 0.00000e+00
           0.00000e+00 0.00000e+00 0.00000e+00 0.00000e+00 0.00000e+00
           0.00000e+00 0.00000e+00 0.00000e+00 0.00000e+00 0.00000e+00
           0.00000e+00 0.00000e+00 0.00000e+00 0.00000e+00 0.00000e+00
           0.00000e+00 0.00000e+00 0.00000e+00 0.00000e+00 0.00000e+00

           0.00000e+00 0.00000e+00 0.00000e+00 0.00000e+00 0.00000e+00
           0.00000e+00 0.00000e+00 0.00000e+00 0.00000e+00 0.00000e+00
           0.00000e+00 0.00000e+00 0.00000e+00 0.00000e+00 0.00000e+00
           0.00000e+00 0.00000e+00 0.00000e+00 0.00000e+00 0.00000e+00
           0.00000e+00 0.00000e+00 0.00000e+00 0.00000e+00 0.00000e+00
        </DataArray>

        <DataArray type="Float32" Name="Tally_Value_0.00000e+00_lt_E[0]_lt_1.00000e-09_1.00000e+01_lt_T[2]_lt_2.00000e+01" format="ascii">
           0.00000e+00 0.00000e+00 0.00000e+00 0.00000e+00 0.00000e+00
           0.00000e+00 0.00000e+00 0.00000e+00 0.00000e+00 0.00000e+00
           0.00000e+00 0.00000e+00 0.00000e+00 0.00000e+00 0.00000e+00
           0.00000e+00 0.00000e+00 0.00000e+00 0.00000e+00 0.00000e+00
           0.00000e+00 0.00000e+00 0.00000e+00 0.00000e+00 0.00000e+00

           0.00000e+00 0.00000e+00 0.00000e+00 0.00000e+00 0.00000e+00
           0.00000e+00 0.00000e+00 0.00000e+00 0.00000e+00 0.00000e+00
           0.00000e+00 0.00000e+00 0.00000e+00 0.00000e+00 0.00000e+00
           0.00000e+00 0.00000e+00 0.00000e+00 0.00000e+00 0.00000e+00
           0.00000e+00 0.00000e+00 0.00000e+00 0.00000e+00 0.00000e+00

           0.00000e+00 0.00000e+00 0.00000e+00 0.00000e+00 0.00000e+00
           0.00000e+00 0.00000e+00 0.00000e+00 0.00000e+00 0.00000e+00
           0.00000e+00 0.00000e+00 0.00000e+00 0.00000e+00 0.00000e+00
           0.00000e+00 0.00000e+00 0.00000e+00 0.00000e+00 0.00000e+00
           0.00000e+00 0.00000e+00 0.00000e+00 0.00000e+00 0.00000e+00

           0.00000e+00 0.00000e+00 0.00000e+00 0.00000e+00 0.00000e+00
           0.00000e+00 0.00000e+00 0.00000e+00 0.00000e+00 0.00000e+00
           0.00000e+00 0.00000e+00 0.00000e+00 0.00000e+00 0.00000e+00
           0.00000e+00 0.00000e+00 0.00000e+00 0.00000e+00 0.00000e+00
           0.00000e+00 0.00000e+00 0.00000e+00 0.00000e+00 0.00000e+00

           0.00000e+00 0.00000e+00 0.00000e+00 0.00000e+00 0.00000e+00
           0.00000e+00 0.00000e+00 0.00000e+00 0.00000e+00 0.00000e+00
           0.00000e+00 0.00000e+00 0.00000e+00 0.00000e+00 0.00000e+00
           0.00000e+00 0.00000e+00 0.00000e+00 0.00000e+00 0.00000e+00
           0.00000e+00 0.00000e+00 0.00000e+00 0.00000e+00 0.00000e+00
        </DataArray>

        <DataArray type="Float32" Name="Tally_Value_0.00000e+00_lt_E[0]_lt_1.00000e-09_T[total]" format="ascii">
           0.00000e+00 0.00000e+00 0.00000e+00 0.00000e+00 0.00000e+00
           0.00000e+00 0.00000e+00 0.00000e+00 0.00000e+00 0.00000e+00
           0.00000e+00 0.00000e+00 0.00000e+00 0.00000e+00 0.00000e+00
           0.00000e+00 0.00000e+00 0.00000e+00 0.00000e+00 0.00000e+00
           0.00000e+00 0.00000e+00 0.00000e+00 0.00000e+00 0.00000e+00

           0.00000e+00 0.00000e+00 0.00000e+00 0.00000e+00 0.00000e+00
           0.00000e+00 0.00000e+00 0.00000e+00 0.00000e+00 0.00000e+00
           0.00000e+00 0.00000e+00 0.00000e+00 0.00000e+00 0.00000e+00
           0.00000e+00 0.00000e+00 0.00000e+00 0.00000e+00 0.00000e+00
           0.00000e+00 0.00000e+00 0.00000e+00 0.00000e+00 0.00000e+00

           0.00000e+00 0.00000e+00 0.00000e+00 0.00000e+00 0.00000e+00
           0.00000e+00 0.00000e+00 0.00000e+00 0.00000e+00 0.00000e+00
           0.00000e+00 0.00000e+00 0.00000e+00 0.00000e+00 0.00000e+00
           0.00000e+00 0.00000e+00 0.00000e+00 0.00000e+00 0.00000e+00
           0.00000e+00 0.00000e+00 0.00000e+00 0.00000e+00 0.00000e+00

           0.00000e+00 0.00000e+00 0.00000e+00 0.00000e+00 0.00000e+00
           0.00000e+00 0.00000e+00 0.00000e+00 0.00000e+00 0.00000e+00
           0.00000e+00 0.00000e+00 0.00000e+00 0.00000e+00 0.00000e+00
           0.00000e+00 0.00000e+00 0.00000e+00 0.00000e+00 0.00000e+00
           0.00000e+00 0.00000e+00 0.00000e+00 0.00000e+00 0.00000e+00

           0.00000e+00 0.00000e+00 0.00000e+00 0.00000e+00 0.00000e+00
           0.00000e+00 0.00000e+00 0.00000e+00 0.00000e+00 0.00000e+00
           0.00000e+00 0.00000e+00 0.00000e+00 0.00000e+00 0.00000e+00
           0.00000e+00 0.00000e+00 0.00000e+00 0.00000e+00 0.00000e+00
           0.00000e+00 0.00000e+00 0.00000e+00 0.00000e+00 0.00000e+00
        </DataArray>

        <DataArray type="Float32" Name="Tally_Value_1.00000e-09_lt_E[1]_lt_1.00000e-03_-1.00000e+36_lt_T[0]_lt_0.00000e+00" format="ascii">
           0.00000e+00 0.00000e+00 0.00000e+00 0.00000e+00 0.00000e+00
           0.00000e+00 0.00000e+00 0.00000e+00 0.00000e+00 0.00000e+00
           0.00000e+00 0.00000e+00 0.00000e+00 0.00000e+00 0.00000e+00
           0.00000e+00 0.00000e+00 0.00000e+00 0.00000e+00 0.00000e+00
           0.00000e+00 0.00000e+00 0.00000e+00 0.00000e+00 0.00000e+00

           0.00000e+00 0.00000e+00 0.00000e+00 0.00000e+00 0.00000e+00
           0.00000e+00 0.00000e+00 0.00000e+00 0.00000e+00 0.00000e+00
           0.00000e+00 0.00000e+00 0.00000e+00 0.00000e+00 0.00000e+00
           0.00000e+00 0.00000e+00 0.00000e+00 0.00000e+00 0.00000e+00
           0.00000e+00 0.00000e+00 0.00000e+00 0.00000e+00 0.00000e+00

           0.00000e+00 0.00000e+00 0.00000e+00 0.00000e+00 0.00000e+00
           0.00000e+00 0.00000e+00 0.00000e+00 0.00000e+00 0.00000e+00
           0.00000e+00 0.00000e+00 0.00000e+00 0.00000e+00 0.00000e+00
           0.00000e+00 0.00000e+00 0.00000e+00 0.00000e+00 0.00000e+00
           0.00000e+00 0.00000e+00 0.00000e+00 0.00000e+00 0.00000e+00

           0.00000e+00 0.00000e+00 0.00000e+00 0.00000e+00 0.00000e+00
           0.00000e+00 0.00000e+00 0.00000e+00 0.00000e+00 0.00000e+00
           0.00000e+00 0.00000e+00 0.00000e+00 0.00000e+00 0.00000e+00
           0.00000e+00 0.00000e+00 0.00000e+00 0.00000e+00 0.00000e+00
           0.00000e+00 0.00000e+00 0.00000e+00 0.00000e+00 0.00000e+00

           0.00000e+00 0.00000e+00 0.00000e+00 0.00000e+00 0.00000e+00
           0.00000e+00 0.00000e+00 0.00000e+00 0.00000e+00 0.00000e+00
           0.00000e+00 0.00000e+00 0.00000e+00 0.00000e+00 0.00000e+00
           0.00000e+00 0.00000e+00 0.00000e+00 0.00000e+00 0.00000e+00
           0.00000e+00 0.00000e+00 0.00000e+00 0.00000e+00 0.00000e+00
        </DataArray>

        <DataArray type="Float32" Name="Tally_Value_1.00000e-09_lt_E[1]_lt_1.00000e-03_0.00000e+00_lt_T[1]_lt_1.00000e+01" format="ascii">
           0.00000e+00 1.58018e-06 5.87235e-06 1.37666e-06 0.00000e+00
           1.33997e-06 3.47463e-05 6.42807e-05 3.46660e-05 1.44614e-06
           6.16789e-06 6.10817e-05 9.73995e-05 6.20823e-05 6.98969e-06
           1.33649e-06 3.41128e-05 6.32854e-05 3.35868e-05 1.99765e-06
           0.00000e+00 1.43973e-06 5.92975e-06 1.30128e-06 0.00000e+00

           1.86741e-06 3.23422e-05 6.26755e-05 3.53978e-05 1.75746e-06
           3.34083e-05 1.20977e-04 1.06125e-04 1.13417e-04 3.28996e-05
           5.82861e-05 1.15502e-04 5.64551e-05 1.20970e-04 6.19902e-05
           3.42504e-05 1.22113e-04 1.12516e-04 1.23990e-04 3.46160e-05
           1.73636e-06 3.58476e-05 6.26639e-05 3.39100e-05 1.36467e-06

           5.36861e-06 5.91268e-05 9.44885e-05 6.32503e-05 6.87155e-06
           5.95170e-05 1.10721e-04 4.96289e-05 1.07973e-04 5.98779e-05
           9.73990e-05 5.39713e-05 1.30710e-07 5.48596e-05 9.37776e-05
           6.06744e-05 1.16887e-04 5.04393e-05 1.19244e-04 6.15500e-05
           7.27509e-06 6.18165e-05 9.87964e-05 6.22139e-05 6.35156e-06

           1.78734e-06 3.37219e-05 6.08417e-05 3.65605e-05 1.36924e-06
           3.41620e-05 1.20021e-04 1.09214e-04 1.15344e-04 3.39167e-05
           6.07493e-05 1.14306e-04 5.46472e-05 1.12783e-04 6.60878e-05
           3.39895e-05 1.22232e-04 1.12990e-04 1.27725e-04 3.44740e-05
           1.39366e-06 3.65957e-05 6.36432e-05 3.71662e-05 1.92743e-06

           0.00000e+00 1.51486e-06 6.49117e-06 1.39762e-06 0.00000e+00
           1.41354e-06 3.26597e-05 6.22757e-05 3.47771e-05 1.65095e-06
           5.60353e-06 5.81682e-05 9.48259e-05 6.26581e-05 6.33219e-06
           1.72844e-06 3.56583e-05 6.42021e-05 3.23998e-05 1.40291e-06
           0.00000e+00 1.60445e-06 6.73366e-06 1.89480e-06 0.00000e+00
        </DataArray>

        <DataArray type="Float32" Name="Tally_Value_1.00000e-09_lt_E[1]_lt_1.00000e-03_1.00000e+01_lt_T[2]_lt_2.00000e+01" format="ascii">
           0.00000e+00 1.75507e-06 5.53928e-06 1.29668e-06 0.00000e+00
           1.31666e-06 2.73486e-05 4.65289e-05 2.76304e-05 1.19512e-06
           4.86455e-06 4.73432e-05 7.04846e-05 4.75619e-05 6.02203e-06
           1.25846e-06 2.72314e-05 4.57817e-05 2.74106e-05 1.58745e-06
           0.00000e+00 1.04153e-06 4.39595e-06 1.46553e-06 0.00000e+00

           1.21559e-06 2.55967e-05 4.81930e-05 2.73245e-05 9.54179e-07
           2.70887e-05 8.37547e-05 7.65433e-05 7.94992e-05 2.56683e-05
           4.63590e-05 7.57042e-05 4.27882e-05 7.96850e-05 4.87869e-05
           2.69505e-05 8.65206e-05 8.04134e-05 8.31837e-05 2.87955e-05
           1.06579e-06 2.59400e-05 4.86150e-05 2.89654e-05 1.12562e-06

           5.13725e-06 4.73700e-05 7.07835e-05 4.87103e-05 5.41123e-06
           4.70119e-05 7.46222e-05 3.62848e-05 7.45148e-05 4.77662e-05
           7.08057e-05 4.17347e-05 3.08898e-06 4.07918e-05 7.07213e-05
           4.67427e-05 7.59840e-05 3.91538e-05 8.23429e-05 4.94489e-05
           5.55685e-06 4.95457e-05 7.30103e-05 4.63857e-05 5.03835e-06

           1.05935e-06 2.49209e-05 4.95822e-05 2.59640e-05 9.07887e-07
           2.55840e-05 8.32427e-05 7.57214e-05 8.27419e-05 2.53310e-05
           4.54038e-05 7.47513e-05 3.99807e-05 7.50650e-05 5.02319e-05
           2.75449e-05 8.58179e-05 7.96212e-05 8.51139e-05 2.77738e-05
           1.27018e-06 2.69708e-05 4.72368e-05 3.08433e-05 1.28455e-06

           0.00000e+00 1.36686e-06 5.09929e-06 1.46510e-06 0.00000e+00
           1.18811e-06 2.50167e-05 4.77076e-05 2.79640e-05 1.09453e-06
           4.27385e-06 4.56252e-05 6.97743e-05 4.54726e-05 5.03426e-06
           1.17638e-06 2.83843e-05 4.87940e-05 2.71028e-05 1.16398e-06
           0.00000e+00 1.49176e-06 5.44408e-06 1.24450e-06 0.00000e+00
        </DataArray>

        <DataArray type="Float32" Name="Tally_Value_1.00000e-09_lt_E[1]_lt_1.00000e-03_T[total]" format="ascii">
           0.00000e+00 3.33524e-06 1.14116e-05 2.67333e-06 0.00000e+00
           2.65663e-06 6.20948e-05 1.10810e-04 6.22964e-05 2.64125e-06
           1.10324e-05 1.08425e-04 1.67884e-04 1.09644e-04 1.30117e-05
           2.59495e-06 6.13442e-05 1.09067e-04 6.09974e-05 3.58510e-06
           0.00000e+00 2.48126e-06 1.03257e-05 2.76680e-06 0.00000e+00

           3.08300e-06 5.79389e-05 1.10869e-04 6.27223e-05 2.71163e-06
           6.04969e-05 2.04732e-04 1.82668e-04 1.92916e-04 5.85679e-05
           1.04645e-04 1.91206e-04 9.92433e-05 2.00655e-04 1.10777e-04
           6.12009e-05 2.08633e-04 1.92929e-04 2.07173e-04 6.34115e-05
           2.80216e-06 6.17876e-05 1.11279e-04 6.28754e-05 2.49028e-06

           1.05059e-05 1.06497e-04 1.65272e-04 1.11961e-04 1.22828e-05
           1.06529e-04 1.85343e-04 8.59136e-05 1.82488e-04 1.07644e-04
           1.68205e-04 9.57059e-05 3.21969e-06 9.56513e-05 1.64499e-04
           1.07417e-04 1.92871e-04 8.95931e-05 2.01587e-04 1.10999e-04
           1.28319e-05 1.11362e-04 1.71807e-04 1.08600e-04 1.13899e-05

           2.84670e-06 5.86427e-05 1.10424e-04 6.25245e-05 2.27712e-06
           5.97460e-05 2.03264e-04 1.84935e-04 1.98086e-04 5.92477e-05
           1.06153e-04 1.89057e-04 9.46279e-05 1.87848e-04 1.16320e-04
           6.15344e-05 2.08050e-04 1.92611e-04 2.12839e-04 6.22478e-05
           2.66385e-06 6.35666e-05 1.10880e-04 6.80095e-05 3.21198e-06

           0.00000e+00 2.88172e-06 1.15905e-05 2.86272e-06 0.00000e+00
           2.60164e-06 5.76764e-05 1.09983e-04 6.27411e-05 2.74548e-06
           9.87737e-06 1.03793e-04 1.64600e-04 1.08131e-04 1.13665e-05
           2.90482e-06 6.40426e-05 1.12996e-04 5.95026e-05 2.56689e-06
           0.00000e+00 3.09620e-06 1.21777e-05 3.13930e-06 0.00000e+00
        </DataArray>

        <DataArray type="Float32" Name="Tally_Value_1.00000e-03_lt_E[2]_lt_1.00000e+03_-1.00000e+36_lt_T[0]_lt_0.00000e+00" format="ascii">
           0.00000e+00 0.00000e+00 0.00000e+00 0.00000e+00 0.00000e+00
           0.00000e+00 0.00000e+00 0.00000e+00 0.00000e+00 0.00000e+00
           0.00000e+00 0.00000e+00 0.00000e+00 0.00000e+00 0.00000e+00
           0.00000e+00 0.00000e+00 0.00000e+00 0.00000e+00 0.00000e+00
           0.00000e+00 0.00000e+00 0.00000e+00 0.00000e+00 0.00000e+00

           0.00000e+00 0.00000e+00 0.00000e+00 0.00000e+00 0.00000e+00
           0.00000e+00 0.00000e+00 0.00000e+00 0.00000e+00 0.00000e+00
           0.00000e+00 0.00000e+00 0.00000e+00 0.00000e+00 0.00000e+00
           0.00000e+00 0.00000e+00 0.00000e+00 0.00000e+00 0.00000e+00
           0.00000e+00 0.00000e+00 0.00000e+00 0.00000e+00 0.00000e+00

           0.00000e+00 0.00000e+00 0.00000e+00 0.00000e+00 0.00000e+00
           0.00000e+00 0.00000e+00 0.00000e+00 0.00000e+00 0.00000e+00
           0.00000e+00 0.00000e+00 0.00000e+00 0.00000e+00 0.00000e+00
           0.00000e+00 0.00000e+00 0.00000e+00 0.00000e+00 0.00000e+00
           0.00000e+00 0.00000e+00 0.00000e+00 0.00000e+00 0.00000e+00

           0.00000e+00 0.00000e+00 0.00000e+00 0.00000e+00 0.00000e+00
           0.00000e+00 0.00000e+00 0.00000e+00 0.00000e+00 0.00000e+00
           0.00000e+00 0.00000e+00 0.00000e+00 0.00000e+00 0.00000e+00
           0.00000e+00 0.00000e+00 0.00000e+00 0.00000e+00 0.00000e+00
           0.00000e+00 0.00000e+00 0.00000e+00 0.00000e+00 0.00000e+00

           0.00000e+00 0.00000e+00 0.00000e+00 0.00000e+00 0.00000e+00
           0.00000e+00 0.00000e+00 0.00000e+00 0.00000e+00 0.00000e+00
           0.00000e+00 0.00000e+00 0.00000e+00 0.00000e+00 0.00000e+00
           0.00000e+00 0.00000e+00 0.00000e+00 0.00000e+00 0.00000e+00
           0.00000e+00 0.00000e+00 0.00000e+00 0.00000e+00 0.00000e+00
        </DataArray>

        <DataArray type="Float32" Name="Tally_Value_1.00000e-03_lt_E[2]_lt_1.00000e+03_0.00000e+00_lt_T[1]_lt_1.00000e+01" format="ascii">
           0.00000e+00 2.15522e-05 7.82526e-05 2.12645e-05 0.00000e+00
           2.04483e-05 4.08526e-04 7.53147e-04 4.30240e-04 1.95840e-05
           7.93190e-05 7.43572e-04 1.24600e-03 7.41207e-04 8.15745e-05
           1.89222e-05 4.08511e-04 7.46255e-04 4.05054e-04 2.17694e-05
           0.00000e+00 2.00332e-05 7.85975e-05 2.04664e-05 0.00000e+00

           2.09164e-05 4.12835e-04 7.72679e-04 4.10767e-04 2.22762e-05
           4.05196e-04 2.03433e-03 3.63956e-03 2.05737e-03 4.06146e-04
           7.29221e-04 3.55743e-03 6.46013e-03 3.68413e-03 7.60725e-04
           4.12556e-04 2.05454e-03 3.64060e-03 2.10037e-03 4.19964e-04
           2.11741e-05 4.13799e-04 7.51665e-04 4.16525e-04 2.09415e-05

           7.50595e-05 7.34993e-04 1.21054e-03 7.43832e-04 8.33847e-05
           7.08318e-04 3.54881e-03 6.26726e-03 3.57212e-03 7.54906e-04
           1.24743e-03 6.28834e-03 1.00903e-02 6.43621e-03 1.24751e-03
           7.70033e-04 3.66183e-03 6.43437e-03 3.66683e-03 7.44634e-04
           8.04609e-05 7.37842e-04 1.27990e-03 7.54589e-04 7.59674e-05

           2.08998e-05 3.89511e-04 7.37741e-04 3.99726e-04 1.99117e-05
           4.10878e-04 2.04416e-03 3.56200e-03 2.05703e-03 4.19426e-04
           7.37660e-04 3.58674e-03 6.35526e-03 3.66353e-03 7.67230e-04
           4.19314e-04 2.08050e-03 3.62525e-03 2.03798e-03 4.10723e-04
           2.25022e-05 4.01773e-04 7.34548e-04 4.03683e-04 1.95493e-05

           0.00000e+00 2.02316e-05 7.43064e-05 2.03408e-05 0.00000e+00