<?xml version="1.0"?>
<VTKFile type="StructuredGrid" version="0.1">
  <StructuredGrid WholeExtent="0 5 0 5 0 5">
    <Piece Extent="0 5 0 5 0 5">
      <Points>
        <DataArray type="Float32" format="ascii" NumberOfComponents="3">
          -1.00000e+01 -1.00000e+01 -1.00000e+01
          -6.00000e+00 -1.00000e+01 -1.00000e+01
          -2.00000e+00 -1.00000e+01 -1.00000e+01
           2.00000e+00 -1.00000e+01 -1.00000e+01
           6.00000e+00 -1.00000e+01 -1.00000e+01
           1.00000e+01 -1.00000e+01 -1.00000e+01
          -1.00000e+01 -6.00000e+00 -1.00000e+01
          -6.00000e+00 -6.00000e+00 -1.00000e+01
          -2.00000e+00 -6.00000e+00 -1.00000e+01
           2.00000e+00 -6.00000e+00 -1.00000e+01
           6.00000e+00 -6.00000e+00 -1.00000e+01
           1.00000e+01 -6.00000e+00 -1.00000e+01
          -1.00000e+01 -2.00000e+00 -1.00000e+01
          -6.00000e+00 -2.00000e+00 -1.00000e+01
          -2.00000e+00 -2.00000e+00 -1.00000e+01
           2.00000e+00 -2.00000e+00 -1.00000e+01
           6.00000e+00 -2.00000e+00 -1.00000e+01
           1.00000e+01 -2.00000e+00 -1.00000e+01
          -1.00000e+01  2.00000e+00 -1.00000e+01
          -6.00000e+00  2.00000e+00 -1.00000e+01
          -2.00000e+00  2.00000e+00 -1.00000e+01
           2.00000e+00  2.00000e+00 -1.00000e+01
           6.00000e+00  2.00000e+00 -1.00000e+01
           1.00000e+01  2.00000e+00 -1.00000e+01
          -1.00000e+01  6.00000e+00 -1.00000e+01
          -6.00000e+00  6.00000e+00 -1.00000e+01
          -2.00000e+00  6.00000e+00 -1.00000e+01
           2.00000e+00  6.00000e+00 -1.00000e+01
           6.00000e+00  6.00000e+00 -1.00000e+01
           1.00000e+01  6.00000e+00 -1.00000e+01
          -1.00000e+01  1.00000e+01 -1.00000e+01
          -6.00000e+00  1.00000e+01 -1.00000e+01
          -2.00000e+00  1.00000e+01 -1.00000e+01
           2.00000e+00  1.00000e+01 -1.00000e+01
           6.00000e+00  1.00000e+01 -1.00000e+01
           1.00000e+01  1.00000e+01 -1.00000e+01
          -1.00000e+01 -1.00000e+01 -6.00000e+00
          -6.00000e+00 -1.00000e+01 -6.00000e+00
          -2.00000e+00 -1.00000e+01 -6.00000e+00
           2.00000e+00 -1.00000e+01 -6.00000e+00
           6.00000e+00 -1.00000e+01 -6.00000e+00
           1.00000e+01 -1.00000e+01 -6.00000e+00
          -1.00000e+01 -6.00000e+00 -6.00000e+00
          -6.00000e+00 -6.00000e+00 -6.00000e+00
          -2.00000e+00 -6.00000e+00 -6.00000e+00
           2.00000e+00 -6.00000e+00 -6.00000e+00
           6.00000e+00 -6.00000e+00 -6.00000e+00
           1.00000e+01 -6.00000e+00 -6.00000e+00
          -1.00000e+01 -2.00000e+00 -6.00000e+00
          -6.00000e+00 -2.00000e+00 -6.00000e+00
          -2.00000e+00 -2.00000e+00 -6.00000e+00
           2.00000e+00 -2.00000e+00 -6.00000e+00
           6.00000e+00 -2.00000e+00 -6.00000e+00
           1.00000e+01 -2.00000e+00 -6.00000e+00
          -1.00000e+01  2.00000e+00 -6.00000e+00
          -6.00000e+00  2.00000e+00 -6.00000e+00
          -2.00000e+00  2.00000e+00 -6.00000e+00
           2.00000e+00  2.00000e+00 -6.00000e+00
           6.00000e+00  2.00000e+00 -6.00000e+00
           1.00000e+01  2.00000e+00 -6.00000e+00
          -1.00000e+01  6.00000e+00 -6.00000e+00
          -6.00000e+00  6.00000e+00 -6.00000e+00
          -2.00000e+00  6.00000e+00 -6.00000e+00
           2.00000e+00  6.00000e+00 -6.00000e+00
           6.00000e+00  6.00000e+00 -6.00000e+00
           1.00000e+01  6.00000e+00 -6.00000e+00
          -1.00000e+01  1.00000e+01 -6.00000e+00
          -6.00000e+00  1.00000e+01 -6.00000e+00
          -2.00000e+00  1.00000e+01 -6.00000e+00
           2.00000e+00  1.00000e+01 -6.00000e+00
           6.00000e+00  1.00000e+01 -6.00000e+00
           1.00000e+01  1.00000e+01 -6.00000e+00
          -1.00000e+01 -1.00000e+01 -2.00000e+00
          -6.00000e+00 -1.00000e+01 -2.00000e+00
          -2.00000e+00 -1.00000e+01 -2.00000e+00
           2.00000e+00 -1.00000e+01 -2.00000e+00
           6.00000e+00 -1.00000e+01 -2.00000e+00
           1.00000e+01 -1.00000e+01 -2.00000e+00
          -1.00000e+01 -6.00000e+00 -2.00000e+00
          -6.00000e+00 -6.00000e+00 -2.00000e+00
          -2.00000e+00 -6.00000e+00 -2.00000e+00
           2.00000e+00 -6.00000e+00 -2.00000e+00
           6.00000e+00 -6.00000e+00 -2.00000e+00
           1.00000e+01 -6.00000e+00 -2.00000e+00
          -1.00000e+01 -2.00000e+00 -2.00000e+00
          -6.00000e+00 -2.00000e+00 -2.00000e+00
          -2.00000e+00 -2.00000e+00 -2.00000e+00
           2.00000e+00 -2.00000e+00 -2.00000e+00
           6.00000e+00 -2.00000e+00 -2.00000e+00
           1.00000e+01 -2.00000e+00 -2.00000e+00
          -1.00000e+01  2.00000e+00 -2.00000e+00
          -6.00000e+00  2.00000e+00 -2.00000e+00
          -2.00000e+00  2.00000e+00 -2.00000e+00
           2.00000e+00  2.00000e+00 -2.00000e+00
           6.00000e+00  2.00000e+00 -2.00000e+00
           1.00000e+01  2.00000e+00 -2.00000e+00
          -1.00000e+01  6.00000e+00 -2.00000e+00
          -6.00000e+00  6.00000e+00 -2.00000e+00
          -2.00000e+00  6.00000e+00 -2.00000e+00
           2.00000e+00  6.00000e+00 -2.00000e+00
           6.00000e+00  6.00000e+00 -2.00000e+00
           1.00000e+01  6.00000e+00 -2.00000e+00
          -1.00000e+01  1.00000e+01 -2.00000e+00
          -6.00000e+00  1.00000e+01 -2.00000e+00
          -2.00000e+00  1.00000e+01 -2.00000e+00
           2.00000e+00  1.00000e+01 -2.00000e+00
           6.00000e+00  1.00000e+01 -2.00000e+00
           1.00000e+01  1.00000e+01 -2.00000e+00
          -1.00000e+01 -1.00000e+01  2.00000e+00
          -6.00000e+00 -1.00000e+01  2.00000e+00
          -2.00000e+00 -1.00000e+01  2.00000e+00
           2.00000e+00 -1.00000e+01  2.00000e+00
           6.00000e+00 -1.00000e+01  2.00000e+00
           1.00000e+01 -1.00000e+01  2.00000e+00
          -1.00000e+01 -6.00000e+00  2.00000e+00
          -6.00000e+00 -6.00000e+00  2.00000e+00
          -2.00000e+00 -6.00000e+00  2.00000e+00
           2.00000e+00 -6.00000e+00  2.00000e+00
           6.00000e+00 -6.00000e+00  2.00000e+00
           1.00000e+01 -6.00000e+00  2.00000e+00
          -1.00000e+01 -2.00000e+00  2.00000e+00
          -6.00000e+00 -2.00000e+00  2.00000e+00
          -2.00000e+00 -2.00000e+00  2.00000e+00
           2.00000e+00 -2.00000e+00  2.00000e+00
           6.00000e+00 -2.00000e+00  2.00000e+00
           1.00000e+01 -2.00000e+00  2.00000e+00
          -1.00000e+01  2.00000e+00  2.00000e+00
          -6.00000e+00  2.00000e+00  2.00000e+00
          -2.00000e+00  2.00000e+00  2.00000e+00
           2.00000e+00  2.00000e+00  2.00000e+00
           6.00000e+00  2.00000e+00  2.00000e+00
           1.00000e+01  2.00000e+00  2.00000e+00
          -1.00000e+01  6.00000e+00  2.00000e+00
          -6.00000e+00  6.00000e+00  2.00000e+00
          -2.00000e+00  6.00000e+00  2.00000e+00
           2.00000e+00  6.00000e+00  2.00000e+00
           6.00000e+00  6.00000e+00  2.00000e+00
           1.00000e+01  6.00000e+00  2.00000e+00
          -1.00000e+01  1.00000e+01  2.00000e+00
          -6.00000e+00  1.00000e+01  2.00000e+00
          -2.00000e+00  1.00000e+01  2.00000e+00
           2.00000e+00  1.00000e+01  2.00000e+00
           6.00000e+00  1.00000e+01  2.00000e+00
           1.00000e+01  1.00000e+01  2.00000e+00
          -1.00000e+01 -1.00000e+01  6.00000e+00
          -6.00000e+00 -1.00000e+01  6.00000e+00
          -2.00000e+00 -1.00000e+01  6.00000e+00
           2.00000e+00 -1.00000e+01  6.00000e+00
           6.00000e+00 -1.00000e+01  6.00000e+00
           1.00000e+01 -1.00000e+01  6.00000e+00
          -1.00000e+01 -6.00000e+00  6.00000e+00
          -6.00000e+00 -6.00000e+00  6.00000e+00
          -2.00000e+00 -6.00000e+00  6.00000e+00
           2.00000e+00 -6.00000e+00  6.00000e+00
           6.00000e+00 -6.00000e+00  6.00000e+00
           1.00000e+01 -6.00000e+00  6.00000e+00
          -1.00000e+01 -2.00000e+00  6.00000e+00
          -6.00000e+00 -2.00000e+00  6.00000e+00
          -2.00000e+00 -2.00000e+00  6.00000e+00
           2.00000e+00 -2.00000e+00  6.00000e+00
           6.00000e+00 -2.00000e+00  6.00000e+00
           1.00000e+01 -2.00000e+00  6.00000e+00
          -1.00000e+01  2.00000e+00  6.00000e+00
          -6.00000e+00  2.00000e+00  6.00000e+00
          -2.00000e+00  2.00000e+00  6.00000e+00
           2.00000e+00  2.00000e+00  6.00000e+00
           6.00000e+00  2.00000e+00  6.00000e+00
           1.00000e+01  2.00000e+00  6.00000e+00
          -1.00000e+01  6.00000e+00  6.00000e+00
          -6.00000e+00  6.00000e+00  6.00000e+00
          -2.00000e+00  6.00000e+00  6.00000e+00
           2.00000e+00  6.00000e+00  6.00000e+00
           6.00000e+00  6.00000e+00  6.00000e+00
           1.00000e+01  6.00000e+00  6.00000e+00
          -1.00000e+01  1.00000e+01  6.00000e+00
          -6.00000e+00  1.00000e+01  6.00000e+00
          -2.00000e+00  1.00000e+01  6.00000e+00
           2.00000e+00  1.00000e+01  6.00000e+00
           6.00000e+00  1.00000e+01  6.00000e+00
           1.00000e+01  1.00000e+01  6.00000e+00
          -1.00000e+01 -1.00000e+01  1.00000e+01
          -6.00000e+00 -1.00000e+01  1.00000e+01
          -2.00000e+00 -1.00000e+01  1.00000e+01
           2.00000e+00 -1.00000e+01  1.00000e+01
           6.00000e+00 -1.00000e+01  1.00000e+01
           1.00000e+01 -1.00000e+01  1.00000e+01
          -1.00000e+01 -6.00000e+00  1.00000e+01
          -6.00000e+00 -6.00000e+00  1.00000e+01
          -2.00000e+00 -6.00000e+00  1.00000e+01
           2.00000e+00 -6.00000e+00  1.00000e+01
           6.00000e+00 -6.00000e+00  1.00000e+01
           1.00000e+01 -6.00000e+00  1.00000e+01
          -1.00000e+01 -2.00000e+00  1.00000e+01
          -6.00000e+00 -2.00000e+00  1.00000e+01
          -2.00000e+00 -2.00000e+00  1.00000e+01
           2.00000e+00 -2.00000e+00  1.00000e+01
           6.00000e+00 -2.00000e+00  1.00000e+01
           1.00000e+01 -2.00000e+00  1.00000e+01
          -1.00000e+01  2.00000e+00  1.00000e+01
          -6.00000e+00  2.00000e+00  1.00000e+01
          -2.00000e+00  2.00000e+00  1.00000e+01
           2.00000e+00  2.00000e+00  1.00000e+01
           6.00000e+00  2.00000e+00  1.00000e+01
           1.00000e+01  2.00000e+00  1.00000e+01
          -1.00000e+01  6.00000e+00  1.00000e+01
          -6.00000e+00  6.00000e+00  1.00000e+01
          -2.00000e+00  6.00000e+00  1.00000e+01
           2.00000e+00  6.00000e+00  1.00000e+01
           6.00000e+00  6.00000e+00  1.00000e+01
           1.00000e+01  6.00000e+00  1.00000e+01
          -1.00000e+01  1.00000e+01  1.00000e+01
          -6.00000e+00  1.00000e+01  1.00000e+01
          -2.00000e+00  1.00000e+01  1.00000e+01
           2.00000e+00  1.00000e+01  1.00000e+01
           6.00000e+00  1.00000e+01  1.00000e+01
           1.00000e+01  1.00000e+01  1.00000e+01
        </DataArray>
      </Points>
      <CellData Scalars="cell_scalars">
        <DataArray type="Float32" Name="Tally_Value_0.00000e+00_lt_E[0]_lt_1.00000e-09" format="ascii">
           0.00000e+00 1.22298e-08 1.61860e-08 1.37260e-08 0.00000e+00
           2.04401e-09 8.60856e-08 2.05702e-07 1.21462e-07 0.00000e+00
           1.12147e-08 1.94679e-07 3.85828e-07 3.26724e-07 2.77237e-08
           8.28865e-09 1.16530e-07 2.64410e-07 1.49859e-07 1.07611e-08
           0.00000e+00 5.95185e-09 3.97134e-08 1.96457e-09 0.00000e+00

           6.95733e-09 1.07533e-07 2.29955e-07 1.13878e-07 7.77065e-09
           1.62017e-07 3.49372e-07 3.24354e-07 3.80763e-07 1.98782e-07
           3.07475e-07 3.21180e-07 7.52397e-08 3.00408e-07 2.50146e-07
           1.54732e-07 4.83187e-07 2.92085e-07 4.41364e-07 9.94313e-08
           6.36242e-09 1.62990e-07 2.59431e-07 1.88110e-07 0.00000e+00

           2.49700e-08 1.87522e-07 3.72248e-07 2.33196e-07 6.36403e-09
           2.50559e-07 3.41162e-07 1.53838e-07 3.40065e-07 2.09631e-07
           3.81375e-07 1.14215e-07 0.00000e+00 8.71419e-08 3.63631e-07
           2.34778e-07 3.46263e-07 1.32963e-07 2.83153e-07 2.04923e-07
           4.54206e-08 2.23227e-07 3.41530e-07 2.32932e-07 5.51524e-08

           7.14878e-09 1.70582e-07 2.17001e-07 1.50831e-07 7.33056e-10
           1.26590e-07 4.36889e-07 2.82817e-07 3.37275e-07 1.95055e-07
           2.35759e-07 3.10621e-07 7.79673e-08 3.55750e-07 3.21996e-07
           1.48595e-07 4.61783e-07 3.64413e-07 4.22786e-07 1.35640e-07
           2.36928e-09 1.73427e-07 2.15236e-07 1.14180e-07 2.75738e-09

           0.00000e+00 3.75103e-09 2.05760e-08 1.29389e-08 0.00000e+00
           0.00000e+00 1.48122e-07 2.63092e-07 1.43829e-07 1.79608e-09
           8.45750e-09 2.24828e-07 3.21597e-07 2.74774e-07 5.59085e-08
           1.57512e-08 9.16684e-08 2.78774e-07 1.29305e-07 4.87637e-09
           0.00000e+00 0.00000e+00 1.24990e-08 9.00775e-09 0.00000e+00
        </DataArray>

        <DataArray type="Float32" Name="Tally_Value_1.00000e-09_lt_E[1]_lt_1.00000e-03" format="ascii">
           0.00000e+00 1.53586e-05 6.12096e-05 1.64058e-05 0.00000e+00
           1.47602e-05 3.40415e-04 5.96500e-04 3.42211e-04 1.51477e-05
           6.28886e-05 5.96708e-04 9.05336e-04 6.05117e-04 6.22688e-05
           1.50679e-05 3.38832e-04 6.27104e-04 3.55046e-04 1.65020e-05
           0.00000e+00 1.41069e-05 6.24997e-05 1.68426e-05 0.00000e+00

           1.52856e-05 3.48601e-04 6.01561e-04 3.33621e-04 1.52043e-05
           3.27118e-04 9.72464e-04 8.63713e-04 9.75171e-04 3.37953e-04
           5.98668e-04 8.73928e-04 3.73347e-04 8.91620e-04 5.94281e-04
           3.51840e-04 1.02442e-03 8.89004e-04 1.08136e-03 3.71155e-04
           1.55127e-05 3.46654e-04 6.30419e-04 3.61668e-04 1.61062e-05

           6.26567e-05 5.91307e-04 8.54558e-04 6.13739e-04 6.44219e-05
           5.89675e-04 8.58680e-04 3.39236e-04 8.48937e-04 5.98221e-04
           9.02778e-04 3.63595e-04 1.21709e-05 3.56806e-04 8.81836e-04
           5.73731e-04 8.51515e-04 3.59377e-04 8.88947e-04 6.10810e-04
           6.25559e-05 6.11735e-04 8.80953e-04 6.10223e-04 6.24913e-05

           1.65211e-05 3.45902e-04 6.25859e-04 3.43950e-04 1.35620e-05
           3.50262e-04 1.02482e-03 8.80588e-04 1.00237e-03 3.40256e-04
           5.85966e-04 8.73617e-04 3.55261e-04 8.47692e-04 6.32540e-04
           3.32388e-04 1.02367e-03 8.73766e-04 1.03868e-03 3.63556e-04
           1.57451e-05 3.51304e-04 6.33175e-04 3.54813e-04 1.61443e-05

           0.00000e+00 1.55926e-05 6.05477e-05 1.56260e-05 0.00000e+00
           1.43175e-05 3.37578e-04 6.16610e-04 3.44216e-04 1.43827e-05
           5.99246e-05 5.82381e-04 8.63610e-04 6.04870e-04 6.36955e-05
           1.51685e-05 3.39929e-04 5.85763e-04 3.52520e-04 1.48448e-05
           0.00000e+00 1.64834e-05 6.41454e-05 1.61727e-05 0.00000e+00
        </DataArray>

        <DataArray type="Float32" Name="Tally_Value_1.00000e-03_lt_E[2]_lt_1.00000e+03" format="ascii">
           0.00000e+00 2.15767e-05 7.83567e-05 2.12923e-05 0.00000e+00
           2.05879e-05 4.08926e-04 7.54387e-04 4.30817e-04 1.96011e-05
           7.93499e-05 7.44892e-04 1.24720e-03 7.42020e-04 8.16143e-05
           1.89521e-05 4.08863e-04 7.47277e-04 4.05637e-04 2.17828e-05
           0.00000e+00 2.00702e-05 7.87875e-05 2.05138e-05 0.00000e+00

           2.09164e-05 4.13360e-04 7.73566e-04 4.11561e-04 2.23748e-05
           4.06021e-04 2.03645e-03 3.64424e-03 2.05972e-03 4.06728e-04
           7.30668e-04 3.56151e-03 6.46760e-03 3.68901e-03 7.62127e-04
           4.13695e-04 2.05771e-03 3.64565e-03 2.10296e-03 4.20529e-04
           2.13213e-05 4.14648e-04 7.52992e-04 4.16998e-04 2.09613e-05

           7.50935e-05 7.35666e-04 1.21186e-03 7.44889e-04 8.35675e-05
           7.09533e-04 3.55372e-03 6.27622e-03 3.57769e-03 7.55812e-04
           1.24880e-03 6.29768e-03 1.01045e-02 6.44548e-03 1.24879e-03
           7.71412e-04 3.66688e-03 6.44178e-03 3.67118e-03 7.45351e-04
           8.05880e-05 7.38966e-04 1.28109e-03 7.55535e-04 7.61978e-05

           2.09548e-05 3.89979e-04 7.38334e-04 4.00203e-04 1.99702e-05
           4.11601e-04 2.04665e-03 3.56663e-03 2.05926e-03 4.20076e-04
           7.38789e-04 3.59134e-03 6.36527e-03 3.66755e-03 7.68210e-04
           4.19851e-04 2.08304e-03 3.63013e-03 2.04048e-03 4.11067e-04
           2.25022e-05 4.02474e-04 7.35625e-04 4.04231e-04 1.95813e-05

           0.00000e+00 2.02636e-05 7.44095e-05 2.03408e-05 0.00000e+00
           2.18781e-05 4.06740e-04 7.43002e-04 4.10619e-04 2.20744e-05
           7.65540e-05 7.42764e-04 1.22448e-03 7.36829e-04 8.27128e-05
           2.14319e-05 4.22350e-04 7.48880e-04 4.21101e-04 2.25836e-05
           0.00000e+00 2.03800e-05 7.57465e-05 2.21170e-05 0.00000e+00
        </DataArray>

        <DataArray type="Float32" Name="Tally_Value_E[total]" format="ascii">
           0.00000e+00 3.69475e-05 1.39582e-04 3.77118e-05 0.00000e+00
           3.53502e-05 7.49427e-04 1.35109e-03 7.73150e-04 3.47488e-05
           1.42250e-04 1.34180e-03 2.15292e-03 1.34746e-03 1.43911e-04
           3.40282e-05 7.47811e-04 1.37465e-03 7.60833e-04 3.82956e-05
           0.00000e+00 3.41830e-05 1.41327e-04 3.73584e-05 0.00000e+00

           3.62090e-05 7.62069e-04 1.37536e-03 7.45296e-04 3.75868e-05
           7.33301e-04 3.00926e-03 4.50828e-03 3.03527e-03 7.44880e-04
           1.32964e-03 4.43576e-03 6.84102e-03 4.58093e-03 1.35666e-03
           7.65690e-04 3.08261e-03 4.53495e-03 3.18476e-03 7.91784e-04
           3.68403e-05 7.61465e-04 1.38367e-03 7.78854e-04 3.70674e-05

           1.37775e-04 1.32716e-03 2.06679e-03 1.35886e-03 1.47996e-04
           1.29946e-03 4.41274e-03 6.61561e-03 4.42696e-03 1.35424e-03
           2.15195e-03 6.66139e-03 1.01166e-02 6.80238e-03 2.13099e-03
           1.34538e-03 4.51874e-03 6.80129e-03 4.56041e-03 1.35637e-03
           1.43189e-04 1.35092e-03 2.16239e-03 1.36599e-03 1.38744e-04

           3.74830e-05 7.36052e-04 1.36441e-03 7.44304e-04 3.35329e-05
           7.61989e-04 3.07191e-03 4.44750e-03 3.06197e-03 7.60527e-04
           1.32499e-03 4.46526e-03 6.72061e-03 4.51560e-03 1.40107e-03
           7.52388e-04 3.10717e-03 4.50426e-03 3.07958e-03 7.74759e-04
           3.82497e-05 7.53952e-04 1.36901e-03 7.59158e-04 3.57284e-05

           0.00000e+00 3.58600e-05 1.34978e-04 3.59797e-05 0.00000e+00
           3.61956e-05 7.44467e-04 1.35988e-03 7.54979e-04 3.64590e-05
           1.36487e-04 1.32537e-03 2.08841e-03 1.34197e-03 1.46464e-04
           3.66162e-05 7.62371e-04 1.33492e-03 7.73750e-04 3.74333e-05
           0.00000e+00 3.68633e-05 1.39904e-04 3.82987e-05 0.00000e+00
        </DataArray>
        <DataArray type="Float32" Name="Tally_Error_0.00000e+00_lt_E[0]_lt_1.00000e-09" format="ascii">
           0.00000e+00 9.99998e-01 4.05724e-01 7.79533e-01 0.00000e+00
           9.99998e-01 3.02695e-01 1.76216e-01 2.24269e-01 0.00000e+00
           5.41198e-01 1.72026e-01 1.27304e-01 1.71880e-01 5.81668e-01
           6.92527e-01 2.67302e-01 1.72869e-01 2.36879e-01 9.87129e-01
           0.00000e+00 9.99998e-01 3.62191e-01 9.99998e-01 0.00000e+00

           9.93408e-01 1.99240e-01 1.72982e-01 2.86994e-01 9.81046e-01
           2.45678e-01 1.33773e-01 1.62732e-01 1.31185e-01 2.28419e-01
           1.81855e-01 1.68503e-01 2.51289e-01 1.63389e-01 1.88929e-01
           2.24277e-01 1.35156e-01 1.52455e-01 1.33762e-01 2.63868e-01
           6.66523e-01 2.24739e-01 1.70497e-01 2.77341e-01 0.00000e+00

           4.98633e-01 1.90107e-01 1.75192e-01 1.91471e-01 6.56148e-01
           2.04975e-01 1.46453e-01 2.31871e-01 1.58152e-01 2.02428e-01
           1.44842e-01 2.75703e-01 0.00000e+00 2.99994e-01 1.77428e-01
           2.04815e-01 1.58406e-01 2.74150e-01 1.90425e-01 1.92854e-01
           4.42043e-01 1.80854e-01 1.78049e-01 1.79535e-01 4.63883e-01

           7.53607e-01 2.02194e-01 1.65834e-01 2.10169e-01 7.16885e-01
           2.11661e-01 1.20430e-01 1.45694e-01 1.48274e-01 2.07894e-01
           1.57459e-01 1.51294e-01 2.58968e-01 1.73750e-01 1.63651e-01
           2.11273e-01 1.42108e-01 1.50781e-01 1.58223e-01 2.16030e-01
           9.67206e-01 2.23564e-01 1.90439e-01 2.22441e-01 7.69401e-01

           0.00000e+00 9.72875e-01 5.01660e-01 5.23520e-01 0.00000e+00
           0.00000e+00 2.77343e-01 2.12909e-01 2.61877e-01 9.99998e-01
           5.56797e-01 2.03679e-01 1.51189e-01 1.77472e-01 6.60690e-01
           6.98030e-01 2.81516e-01 1.89425e-01 2.59129e-01 7.01100e-01
           0.00000e+00 0.00000e+00 4.35429e-01 8.90182e-01 0.00000e+00
        </DataArray>

        <DataArray type="Float32" Name="Tally_Error_1.00000e-09_lt_E[1]_lt_1.00000e-03" format="ascii">
           0.00000e+00 6.52435e-02 4.10864e-02 6.20843e-02 0.00000e+00
           6.57659e-02 2.63020e-02 2.29034e-02 2.69633e-02 6.47718e-02
           4.12898e-02 2.30531e-02 2.07707e-02 2.33094e-02 4.12098e-02
           6.67925e-02 2.67373e-02 2.28582e-02 2.68644e-02 6.02714e-02
           0.00000e+00 7.00787e-02 4.14280e-02 6.39947e-02 0.00000e+00

           6.17506e-02 2.67905e-02 2.28345e-02 2.68733e-02 6.55003e-02
           2.70024e-02 1.91767e-02 1.91132e-02 1.96809e-02 2.70818e-02
           2.31907e-02 1.89114e-02 2.12214e-02 1.88836e-02 2.29982e-02
           2.65944e-02 1.92794e-02 1.86672e-02 1.87894e-02 2.59423e-02
           6.32157e-02 2.64524e-02 2.25292e-02 2.62408e-02 6.69309e-02

           4.10472e-02 2.33254e-02 2.06679e-02 2.28018e-02 4.06724e-02
           2.31866e-02 1.90781e-02 2.18417e-02 1.92869e-02 2.28702e-02
           2.05213e-02 2.15032e-02 9.04029e-02 2.13794e-02 2.08892e-02
           2.32020e-02 1.90012e-02 2.12678e-02 1.86229e-02 2.28844e-02
           4.26800e-02 2.28183e-02 2.02616e-02 2.27755e-02 4.16401e-02

           6.12169e-02 2.69828e-02 2.27832e-02 2.63518e-02 6.56506e-02
           2.66692e-02 1.92222e-02 1.92081e-02 1.94667e-02 2.77269e-02
           2.29713e-02 1.91612e-02 2.16324e-02 1.94603e-02 2.29157e-02
           2.72682e-02 1.92335e-02 1.89107e-02 1.91705e-02 2.61616e-02
           6.89073e-02 2.65166e-02 2.25887e-02 2.65513e-02 6.32050e-02

           0.00000e+00 6.46153e-02 4.28169e-02 6.81564e-02 0.00000e+00
           6.70426e-02 2.76125e-02 2.29112e-02 2.66555e-02 6.93864e-02
           4.37498e-02 2.30839e-02 2.07008e-02 2.28176e-02 4.18828e-02
           6.72676e-02 2.61578e-02 2.29807e-02 2.64422e-02 6.21487e-02
           0.00000e+00 6.44329e-02 4.05805e-02 6.10694e-02 0.00000e+00
        </DataArray>

        <DataArray type="Float32" Name="Tally_Error_1.00000e-03_lt_E[2]_lt_1.00000e+03" format="ascii">
           0.00000e+00 5.02049e-02 3.21340e-02 5.06823e-02 0.00000e+00
           5.15496e-02 1.95115e-02 1.58250e-02 1.91975e-02 5.43314e-02
           3.23178e-02 1.58862e-02 1.31512e-02 1.59351e-02 3.20809e-02
           5.34931e-02 1.96696e-02 1.59452e-02 1.96236e-02 5.04916e-02
           0.00000e+00 5.23651e-02 3.21540e-02 5.13811e-02 0.00000e+00

           5.11332e-02 1.94170e-02 1.58900e-02 1.96277e-02 5.05308e-02
           1.95946e-02 1.03985e-02 7.52977e-03 1.03232e-02 1.95063e-02
           1.60932e-02 7.59840e-03 5.39105e-03 7.55944e-03 1.58421e-02
           1.95781e-02 1.03867e-02 7.53863e-03 1.02342e-02 1.92751e-02
           5.01143e-02 1.95453e-02 1.58910e-02 1.92938e-02 5.01448e-02

           3.27056e-02 1.59914e-02 1.33178e-02 1.60122e-02 3.22213e-02
           1.62828e-02 7.65813e-03 5.48431e-03 7.64267e-03 1.59734e-02
           1.32425e-02 5.49472e-03 4.13593e-03 5.42100e-03 1.31737e-02
           1.57127e-02 7.60690e-03 5.40340e-03 7.54248e-03 1.60354e-02
           3.20558e-02 1.61243e-02 1.30006e-02 1.58373e-02 3.28612e-02

           5.13845e-02 1.99608e-02 1.60577e-02 1.97667e-02 5.28441e-02
           1.96849e-02 1.04110e-02 7.64522e-03 1.03724e-02 1.95655e-02
           1.59779e-02 7.60984e-03 5.45373e-03 7.54964e-03 1.58037e-02
           1.94797e-02 1.03188e-02 7.56532e-03 1.03147e-02 1.95463e-02
           5.20148e-02 1.95211e-02 1.60980e-02 1.94821e-02 5.10006e-02

           0.00000e+00 5.04752e-02 3.29233e-02 5.16116e-02 0.00000e+00
           5.08822e-02 1.96192e-02 1.59670e-02 1.96087e-02 5.14026e-02
           3.26801e-02 1.59521e-02 1.32773e-02 1.59578e-02 3.12629e-02
           5.05389e-02 1.92019e-02 1.59329e-02 1.93173e-02 5.03769e-02
           0.00000e+00 5.06597e-02 3.25628e-02 5.00811e-02 0.00000e+00
        </DataArray>

        <DataArray type="Float32" Name="Tally_Error_E[total]" format="ascii">
           0.00000e+00 4.03681e-02 2.59646e-02 3.99945e-02 0.00000e+00
           4.09580e-02 1.68260e-02 1.42383e-02 1.68348e-02 4.22254e-02
           2.61713e-02 1.42947e-02 1.24366e-02 1.44459e-02 2.61442e-02
           4.22188e-02 1.69225e-02 1.43214e-02 1.69347e-02 3.94563e-02
           0.00000e+00 4.24136e-02 2.60927e-02 4.05806e-02 0.00000e+00

           4.03439e-02 1.68581e-02 1.41942e-02 1.70074e-02 4.12514e-02
           1.70049e-02 1.01983e-02 7.60739e-03 1.02561e-02 1.69798e-02
           1.44444e-02 7.68428e-03 5.34842e-03 7.63557e-03 1.42757e-02
           1.69237e-02 1.02282e-02 7.58257e-03 1.00792e-02 1.65978e-02
           3.97775e-02 1.68960e-02 1.42026e-02 1.66940e-02 4.10088e-02

           2.63925e-02 1.44828e-02 1.24468e-02 1.43389e-02 2.60947e-02
           1.46335e-02 7.69453e-03 5.42822e-03 7.71418e-03 1.43079e-02
           1.24541e-02 5.44920e-03 4.13241e-03 5.36921e-03 1.24066e-02
           1.42335e-02 7.66162e-03 5.35042e-03 7.58087e-03 1.43687e-02
           2.65739e-02 1.44081e-02 1.21070e-02 1.41291e-02 2.66507e-02

           3.99354e-02 1.73414e-02 1.43684e-02 1.69393e-02 4.16575e-02
           1.70129e-02 1.02445e-02 7.72235e-03 1.02376e-02 1.71994e-02
           1.43269e-02 7.67438e-03 5.40430e-03 7.63093e-03 1.42801e-02
           1.71016e-02 1.01719e-02 7.61966e-03 1.02120e-02 1.68196e-02
           4.20879e-02 1.69614e-02 1.43081e-02 1.69532e-02 4.06005e-02

           0.00000e+00 4.08117e-02 2.70273e-02 4.19803e-02 0.00000e+00
           4.10478e-02 1.71895e-02 1.43942e-02 1.69727e-02 4.24320e-02
           2.73197e-02 1.42829e-02 1.24003e-02 1.43227e-02 2.60739e-02
           4.15425e-02 1.65779e-02 1.43047e-02 1.67820e-02 3.98354e-02
           0.00000e+00 4.08364e-02 2.61893e-02 3.96168e-02 0.00000e+00
        </DataArray>
      </CellData>
    </Piece>
  </StructuredGrid>
</VTKFile>
