<?xml version="1.0"?>
<VTKFile type="StructuredGrid" version="0.1">
  <StructuredGrid WholeExtent="0 5 0 5 0 5">
    <Piece Extent="0 5 0 5 0 5">
      <Points>
        <DataArray type="Float32" format="ascii" NumberOfComponents="3">
          -1.00000e+01 -1.00000e+01 -1.00000e+01
          -6.00000e+00 -1.00000e+01 -1.00000e+01
          -2.00000e+00 -1.00000e+01 -1.00000e+01
           2.00000e+00 -1.00000e+01 -1.00000e+01
           6.00000e+00 -1.00000e+01 -1.00000e+01
           1.00000e+01 -1.00000e+01 -1.00000e+01
          -1.00000e+01 -6.00000e+00 -1.00000e+01
          -6.00000e+00 -6.00000e+00 -1.00000e+01
          -2.00000e+00 -6.00000e+00 -1.00000e+01
           2.00000e+00 -6.00000e+00 -1.00000e+01
           6.00000e+00 -6.00000e+00 -1.00000e+01
           1.00000e+01 -6.00000e+00 -1.00000e+01
          -1.00000e+01 -2.00000e+00 -1.00000e+01
          -6.00000e+00 -2.00000e+00 -1.00000e+01
          -2.00000e+00 -2.00000e+00 -1.00000e+01
           2.00000e+00 -2.00000e+00 -1.00000e+01
           6.00000e+00 -2.00000e+00 -1.00000e+01
           1.00000e+01 -2.00000e+00 -1.00000e+01
          -1.00000e+01  2.00000e+00 -1.00000e+01
          -6.00000e+00  2.00000e+00 -1.00000e+01
          -2.00000e+00  2.00000e+00 -1.00000e+01
           2.00000e+00  2.00000e+00 -1.00000e+01
           6.00000e+00  2.00000e+00 -1.00000e+01
           1.00000e+01  2.00000e+00 -1.00000e+01
          -1.00000e+01  6.00000e+00 -1.00000e+01
          -6.00000e+00  6.00000e+00 -1.00000e+01
          -2.00000e+00  6.00000e+00 -1.00000e+01
           2.00000e+00  6.00000e+00 -1.00000e+01
           6.00000e+00  6.00000e+00 -1.00000e+01
           1.00000e+01  6.00000e+00 -1.00000e+01
          -1.00000e+01  1.00000e+01 -1.00000e+01
          -6.00000e+00  1.00000e+01 -1.00000e+01
          -2.00000e+00  1.00000e+01 -1.00000e+01
           2.00000e+00  1.00000e+01 -1.00000e+01
           6.00000e+00  1.00000e+01 -1.00000e+01
           1.00000e+01  1.00000e+01 -1.00000e+01
          -1.00000e+01 -1.00000e+01 -6.00000e+00
          -6.00000e+00 -1.00000e+01 -6.00000e+00
          -2.00000e+00 -1.00000e+01 -6.00000e+00
           2.00000e+00 -1.00000e+01 -6.00000e+00
           6.00000e+00 -1.00000e+01 -6.00000e+00
           1.00000e+01 -1.00000e+01 -6.00000e+00
          -1.00000e+01 -6.00000e+00 -6.00000e+00
          -6.00000e+00 -6.00000e+00 -6.00000e+00
          -2.00000e+00 -6.00000e+00 -6.00000e+00
           2.00000e+00 -6.00000e+00 -6.00000e+00
           6.00000e+00 -6.00000e+00 -6.00000e+00
           1.00000e+01 -6.00000e+00 -6.00000e+00
          -1.00000e+01 -2.00000e+00 -6.00000e+00
          -6.00000e+00 -2.00000e+00 -6.00000e+00
          -2.00000e+00 -2.00000e+00 -6.00000e+00
           2.00000e+00 -2.00000e+00 -6.00000e+00
           6.00000e+00 -2.00000e+00 -6.00000e+00
           1.00000e+01 -2.00000e+00 -6.00000e+00
          -1.00000e+01  2.00000e+00 -6.00000e+00
          -6.00000e+00  2.00000e+00 -6.00000e+00
          -2.00000e+00  2.00000e+00 -6.00000e+00
           2.00000e+00  2.00000e+00 -6.00000e+00
           6.00000e+00  2.00000e+00 -6.00000e+00
           1.00000e+01  2.00000e+00 -6.00000e+00
          -1.00000e+01  6.00000e+00 -6.00000e+00
          -6.00000e+00  6.00000e+00 -6.00000e+00
          -2.00000e+00  6.00000e+00 -6.00000e+00
           2.00000e+00  6.00000e+00 -6.00000e+00
           6.00000e+00  6.00000e+00 -6.00000e+00
           1.00000e+01  6.00000e+00 -6.00000e+00
          -1.00000e+01  1.00000e+01 -6.00000e+00
          -6.00000e+00  1.00000e+01 -6.00000e+00
          -2.00000e+00  1.00000e+01 -6.00000e+00
           2.00000e+00  1.00000e+01 -6.00000e+00
           6.00000e+00  1.00000e+01 -6.00000e+00
           1.00000e+01  1.00000e+01 -6.00000e+00
          -1.00000e+01 -1.00000e+01 -2.00000e+00
          -6.00000e+00 -1.00000e+01 -2.00000e+00
          -2.00000e+00 -1.00000e+01 -2.00000e+00
           2.00000e+00 -1.00000e+01 -2.00000e+00
           6.00000e+00 -1.00000e+01 -2.00000e+00
           1.00000e+01 -1.00000e+01 -2.00000e+00
          -1.00000e+01 -6.00000e+00 -2.00000e+00
          -6.00000e+00 -6.00000e+00 -2.00000e+00
          -2.00000e+00 -6.00000e+00 -2.00000e+00
           2.00000e+00 -6.00000e+00 -2.00000e+00
           6.00000e+00 -6.00000e+00 -2.00000e+00
           1.00000e+01 -6.00000e+00 -2.00000e+00
          -1.00000e+01 -2.00000e+00 -2.00000e+00
          -6.00000e+00 -2.00000e+00 -2.00000e+00
          -2.00000e+00 -2.00000e+00 -2.00000e+00
           2.00000e+00 -2.00000e+00 -2.00000e+00
           6.00000e+00 -2.00000e+00 -2.00000e+00
           1.00000e+01 -2.00000e+00 -2.00000e+00
          -1.00000e+01  2.00000e+00 -2.00000e+00
          -6.00000e+00  2.00000e+00 -2.00000e+00
          -2.00000e+00  2.00000e+00 -2.00000e+00
           2.00000e+00  2.00000e+00 -2.00000e+00
           6.00000e+00  2.00000e+00 -2.00000e+00
           1.00000e+01  2.00000e+00 -2.00000e+00
          -1.00000e+01  6.00000e+00 -2.00000e+00
          -6.00000e+00  6.00000e+00 -2.00000e+00
          -2.00000e+00  6.00000e+00 -2.00000e+00
           2.00000e+00  6.00000e+00 -2.00000e+00
           6.00000e+00  6.00000e+00 -2.00000e+00
           1.00000e+01  6.00000e+00 -2.00000e+00
          -1.00000e+01  1.00000e+01 -2.00000e+00
          -6.00000e+00  1.00000e+01 -2.00000e+00
          -2.00000e+00  1.00000e+01 -2.00000e+00
           2.00000e+00  1.00000e+01 -2.00000e+00
           6.00000e+00  1.00000e+01 -2.00000e+00
           1.00000e+01  1.00000e+01 -2.00000e+00
          -1.00000e+01 -1.00000e+01  2.00000e+00
          -6.00000e+00 -1.00000e+01  2.00000e+00
          -2.00000e+00 -1.00000e+01  2.00000e+00
           2.00000e+00 -1.00000e+01  2.00000e+00
           6.00000e+00 -1.00000e+01  2.00000e+00
           1.00000e+01 -1.00000e+01  2.00000e+00
          -1.00000e+01 -6.00000e+00  2.00000e+00
          -6.00000e+00 -6.00000e+00  2.00000e+00
          -2.00000e+00 -6.00000e+00  2.00000e+00
           2.00000e+00 -6.00000e+00  2.00000e+00
           6.00000e+00 -6.00000e+00  2.00000e+00
           1.00000e+01 -6.00000e+00  2.00000e+00
          -1.00000e+01 -2.00000e+00  2.00000e+00
          -6.00000e+00 -2.00000e+00  2.00000e+00
          -2.00000e+00 -2.00000e+00  2.00000e+00
           2.00000e+00 -2.00000e+00  2.00000e+00
           6.00000e+00 -2.00000e+00  2.00000e+00
           1.00000e+01 -2.00000e+00  2.00000e+00
          -1.00000e+01  2.00000e+00  2.00000e+00
          -6.00000e+00  2.00000e+00  2.00000e+00
          -2.00000e+00  2.00000e+00  2.00000e+00
           2.00000e+00  2.00000e+00  2.00000e+00
           6.00000e+00  2.00000e+00  2.00000e+00
           1.00000e+01  2.00000e+00  2.00000e+00
          -1.00000e+01  6.00000e+00  2.00000e+00
          -6.00000e+00  6.00000e+00  2.00000e+00
          -2.00000e+00  6.00000e+00  2.00000e+00
           2.00000e+00  6.00000e+00  2.00000e+00
           6.00000e+00  6.00000e+00  2.00000e+00
           1.00000e+01  6.00000e+00  2.00000e+00
          -1.00000e+01  1.00000e+01  2.00000e+00
          -6.00000e+00  1.00000e+01  2.00000e+00
          -2.00000e+00  1.00000e+01  2.00000e+00
           2.00000e+00  1.00000e+01  2.00000e+00
           6.00000e+00  1.00000e+01  2.00000e+00
           1.00000e+01  1.00000e+01  2.00000e+00
          -1.00000e+01 -1.00000e+01  6.00000e+00
          -6.00000e+00 -1.00000e+01  6.00000e+00
          -2.00000e+00 -1.00000e+01  6.00000e+00
           2.00000e+00 -1.00000e+01  6.00000e+00
           6.00000e+00 -1.00000e+01  6.00000e+00
           1.00000e+01 -1.00000e+01  6.00000e+00
          -1.00000e+01 -6.00000e+00  6.00000e+00
          -6.00000e+00 -6.00000e+00  6.00000e+00
          -2.00000e+00 -6.00000e+00  6.00000e+00
           2.00000e+00 -6.00000e+00  6.00000e+00
           6.00000e+00 -6.00000e+00  6.00000e+00
           1.00000e+01 -6.00000e+00  6.00000e+00
          -1.00000e+01 -2.00000e+00  6.00000e+00
          -6.00000e+00 -2.00000e+00  6.00000e+00
          -2.00000e+00 -2.00000e+00  6.00000e+00
           2.00000e+00 -2.00000e+00  6.00000e+00
           6.00000e+00 -2.00000e+00  6.00000e+00
           1.00000e+01 -2.00000e+00  6.00000e+00
          -1.00000e+01  2.00000e+00  6.00000e+00
          -6.00000e+00  2.00000e+00  6.00000e+00
          -2.00000e+00  2.00000e+00  6.00000e+00
           2.00000e+00  2.00000e+00  6.00000e+00
           6.00000e+00  2.00000e+00  6.00000e+00
           1.00000e+01  2.00000e+00  6.00000e+00
          -1.00000e+01  6.00000e+00  6.00000e+00
          -6.00000e+00  6.00000e+00  6.00000e+00
          -2.00000e+00  6.00000e+00  6.00000e+00
           2.00000e+00  6.00000e+00  6.00000e+00
           6.00000e+00  6.00000e+00  6.00000e+00
           1.00000e+01  6.00000e+00  6.00000e+00
          -1.00000e+01  1.00000e+01  6.00000e+00
          -6.00000e+00  1.00000e+01  6.00000e+00
          -2.00000e+00  1.00000e+01  6.00000e+00
           2.00000e+00  1.00000e+01  6.00000e+00
           6.00000e+00  1.00000e+01  6.00000e+00
           1.00000e+01  1.00000e+01  6.00000e+00
          -1.00000e+01 -1.00000e+01  1.00000e+01
          -6.00000e+00 -1.00000e+01  1.00000e+01
          -2.00000e+00 -1.00000e+01  1.00000e+01
           2.00000e+00 -1.00000e+01  1.00000e+01
           6.00000e+00 -1.00000e+01  1.00000e+01
           1.00000e+01 -1.00000e+01  1.00000e+01
          -1.00000e+01 -6.00000e+00  1.00000e+01
          -6.00000e+00 -6.00000e+00  1.00000e+01
          -2.00000e+00 -6.00000e+00  1.00000e+01
           2.00000e+00 -6.00000e+00  1.00000e+01
           6.00000e+00 -6.00000e+00  1.00000e+01
           1.00000e+01 -6.00000e+00  1.00000e+01
          -1.00000e+01 -2.00000e+00  1.00000e+01
          -6.00000e+00 -2.00000e+00  1.00000e+01
          -2.00000e+00 -2.00000e+00  1.00000e+01
           2.00000e+00 -2.00000e+00  1.00000e+01
           6.00000e+00 -2.00000e+00  1.00000e+01
           1.00000e+01 -2.00000e+00  1.00000e+01
          -1.00000e+01  2.00000e+00  1.00000e+01
          -6.00000e+00  2.00000e+00  1.00000e+01
          -2.00000e+00  2.00000e+00  1.00000e+01
           2.00000e+00  2.00000e+00  1.00000e+01
           6.00000e+00  2.00000e+00  1.00000e+01
           1.00000e+01  2.00000e+00  1.00000e+01
          -1.00000e+01  6.00000e+00  1.00000e+01
          -6.00000e+00  6.00000e+00  1.00000e+01
          -2.00000e+00  6.00000e+00  1.00000e+01
           2.00000e+00  6.00000e+00  1.00000e+01
           6.00000e+00  6.00000e+00  1.00000e+01
           1.00000e+01  6.00000e+00  1.00000e+01
          -1.00000e+01  1.00000e+01  1.00000e+01
          -6.00000e+00  1.00000e+01  1.00000e+01
          -2.00000e+00  1.00000e+01  1.00000e+01
           2.00000e+00  1.00000e+01  1.00000e+01
           6.00000e+00  1.00000e+01  1.00000e+01
           1.00000e+01  1.00000e+01  1.00000e+01
        </DataArray>
      </Points>
      <CellData Scalars="cell_scalars">
        <DataArray type="Float32" Name="Tally_Value_-1.00000e+36_lt_T[0]_lt_0.00000e+00" format="ascii">
           0.00000e+00 0.00000e+00 0.00000e+00 0.00000e+00 0.00000e+00
           0.00000e+00 0.00000e+00 0.00000e+00 0.00000e+00 0.00000e+00
           0.00000e+00 0.00000e+00 0.00000e+00 0.00000e+00 0.00000e+00
           0.00000e+00 0.00000e+00 0.00000e+00 0.00000e+00 0.00000e+00
           0.00000e+00 0.00000e+00 0.00000e+00 0.00000e+00 0.00000e+00

           0.00000e+00 0.00000e+00 0.00000e+00 0.00000e+00 0.00000e+00
           0.00000e+00 0.00000e+00 0.00000e+00 0.00000e+00 0.00000e+00
           0.00000e+00 0.00000e+00 0.00000e+00 0.00000e+00 0.00000e+00
           0.00000e+00 0.00000e+00 0.00000e+00 0.00000e+00 0.00000e+00
           0.00000e+00 0.00000e+00 0.00000e+00 0.00000e+00 0.00000e+00

           0.00000e+00 0.00000e+00 0.00000e+00 0.00000e+00 0.00000e+00
           0.00000e+00 0.00000e+00 0.00000e+00 0.00000e+00 0.00000e+00
           0.00000e+00 0.00000e+00 0.00000e+00 0.00000e+00 0.00000e+00
           0.00000e+00 0.00000e+00 0.00000e+00 0.00000e+00 0.00000e+00
           0.00000e+00 0.00000e+00 0.00000e+00 0.00000e+00 0.00000e+00

           0.00000e+00 0.00000e+00 0.00000e+00 0.00000e+00 0.00000e+00
           0.00000e+00 0.00000e+00 0.00000e+00 0.00000e+00 0.00000e+00
           0.00000e+00 0.00000e+00 0.00000e+00 0.00000e+00 0.00000e+00
           0.00000e+00 0.00000e+00 0.00000e+00 0.00000e+00 0.00000e+00
           0.00000e+00 0.00000e+00 0.00000e+00 0.00000e+00 0.00000e+00

           0.00000e+00 0.00000e+00 0.00000e+00 0.00000e+00 0.00000e+00
           0.00000e+00 0.00000e+00 0.00000e+00 0.00000e+00 0.00000e+00
           0.00000e+00 0.00000e+00 0.00000e+00 0.00000e+00 0.00000e+00
           0.00000e+00 0.00000e+00 0.00000e+00 0.00000e+00 0.00000e+00
           0.00000e+00 0.00000e+00 0.00000e+00 0.00000e+00 0.00000e+00
        </DataArray>

        <DataArray type="Float32" Name="Tally_Value_0.00000e+00_lt_T[1]_lt_1.00000e+01" format="ascii">
           0.00000e+00 2.31324e-05 8.41250e-05 2.26412e-05 0.00000e+00
           2.17883e-05 4.43272e-04 8.17428e-04 4.64906e-04 2.10301e-05
           8.54869e-05 8.04653e-04 1.34340e-03 8.03290e-04 8.85641e-05
           2.02587e-05 4.42624e-04 8.09540e-04 4.38641e-04 2.37671e-05
           0.00000e+00 2.14729e-05 8.45273e-05 2.17676e-05 0.00000e+00

           2.27838e-05 4.45177e-04 8.35355e-04 4.46165e-04 2.40337e-05
           4.38605e-04 2.15530e-03 3.74569e-03 2.17078e-03 4.39045e-04
           7.87507e-04 3.67293e-03 6.51659e-03 3.80510e-03 8.22715e-04
           4.46807e-04 2.17665e-03 3.75312e-03 2.22436e-03 4.54580e-04
           2.29105e-05 4.49647e-04 8.14329e-04 4.50435e-04 2.23061e-05

           8.04281e-05 7.94120e-04 1.30503e-03 8.07082e-04 9.02563e-05
           7.67835e-04 3.65953e-03 6.31689e-03 3.68009e-03 8.14784e-04
           1.34482e-03 6.34231e-03 1.00904e-02 6.49107e-03 1.34129e-03
           8.30708e-04 3.77872e-03 6.48481e-03 3.78608e-03 8.06184e-04
           8.77360e-05 7.99658e-04 1.37869e-03 8.16802e-04 8.23190e-05

           2.26872e-05 4.23233e-04 7.98583e-04 4.36286e-04 2.12810e-05
           4.45040e-04 2.16418e-03 3.67122e-03 2.17238e-03 4.53342e-04
           7.98409e-04 3.70105e-03 6.40990e-03 3.77631e-03 8.33317e-04
           4.53304e-04 2.20273e-03 3.73824e-03 2.16571e-03 4.45197e-04
           2.38959e-05 4.38368e-04 7.98191e-04 4.40849e-04 2.14767e-05

           0.00000e+00 2.17465e-05 8.07975e-05 2.17384e-05 0.00000e+00
           2.31894e-05 4.38511e-04 8.04518e-04 4.44776e-04 2.36075e-05
           8.20017e-05 7.99897e-04 1.31765e-03 7.98730e-04 8.89552e-05
           2.30886e-05 4.57227e-04 8.11701e-04 4.52688e-04 2.39085e-05
           0.00000e+00 2.19605e-05 8.23354e-05 2.39994e-05 0.00000e+00
        </DataArray>

        <DataArray type="Float32" Name="Tally_Value_1.00000e+01_lt_T[2]_lt_2.00000e+01" format="ascii">
           0.00000e+00 1.77953e-06 5.64332e-06 1.32447e-06 0.00000e+00
           1.45626e-06 2.77490e-05 4.77685e-05 2.82072e-05 1.21221e-06
           4.89547e-06 4.86638e-05 7.16853e-05 4.83741e-05 6.06184e-06
           1.28836e-06 2.75836e-05 4.67828e-05 2.79938e-05 1.60087e-06
           0.00000e+00 1.07850e-06 4.58596e-06 1.51297e-06 0.00000e+00

           1.21559e-06 2.61215e-05 4.90802e-05 2.81187e-05 1.05272e-06
           2.79134e-05 8.58303e-05 8.11051e-05 8.18340e-05 2.62506e-05
           4.77128e-05 7.96869e-05 4.98593e-05 8.44315e-05 5.01509e-05
           2.80853e-05 8.96617e-05 8.52706e-05 8.57294e-05 2.93604e-05
           1.21297e-06 2.67885e-05 4.99224e-05 2.94386e-05 1.14546e-06

           5.17126e-06 4.80435e-05 7.21051e-05 4.97590e-05 5.59398e-06
           4.82266e-05 7.94658e-05 4.48306e-05 7.99584e-05 4.85688e-05
           7.21712e-05 5.08183e-05 1.64404e-05 4.95043e-05 7.19955e-05
           4.80929e-05 8.08385e-05 4.59487e-05 8.66593e-05 5.01659e-05
           5.68388e-06 5.06705e-05 7.41520e-05 4.73318e-05 5.26878e-06

           1.11430e-06 2.53888e-05 5.01748e-05 2.64414e-05 9.66398e-07
           2.63070e-05 8.57308e-05 8.01695e-05 8.48250e-05 2.59815e-05
           4.65328e-05 7.93006e-05 4.95717e-05 7.90030e-05 5.12099e-05
           2.80442e-05 8.83144e-05 8.44770e-05 8.75472e-05 2.81179e-05
           1.27018e-06 2.76722e-05 4.83135e-05 3.13911e-05 1.31660e-06

           0.00000e+00 1.39887e-06 5.20241e-06 1.46510e-06 0.00000e+00
           1.29034e-06 2.59063e-05 4.84557e-05 2.85840e-05 1.21244e-06
           4.42971e-06 4.66600e-05 7.14080e-05 4.62296e-05 5.12402e-06
           1.24813e-06 2.91661e-05 5.01747e-05 2.78586e-05 1.24197e-06
           0.00000e+00 1.51565e-06 5.58888e-06 1.25689e-06 0.00000e+00
        </DataArray>

        <DataArray type="Float32" Name="Tally_Value_T[total]" format="ascii">
           0.00000e+00 2.49119e-05 8.97683e-05 2.39656e-05 0.00000e+00
           2.32445e-05 4.71021e-04 8.65196e-04 4.93113e-04 2.22424e-05
           9.03823e-05 8.53317e-04 1.41508e-03 8.51664e-04 9.46260e-05
           2.15470e-05 4.70207e-04 8.56323e-04 4.66635e-04 2.53679e-05
           0.00000e+00 2.25514e-05 8.91132e-05 2.32806e-05 0.00000e+00

           2.39994e-05 4.71299e-04 8.84435e-04 4.74284e-04 2.50864e-05
           4.66518e-04 2.24113e-03 3.82679e-03 2.25262e-03 4.65296e-04
           8.35220e-04 3.75261e-03 6.56644e-03 3.88953e-03 8.72866e-04
           4.74892e-04 2.26631e-03 3.83839e-03 2.31009e-03 4.83941e-04
           2.41234e-05 4.76435e-04 8.64252e-04 4.79873e-04 2.34516e-05

           8.55994e-05 8.42163e-04 1.37713e-03 8.56841e-04 9.58503e-05
           8.16061e-04 3.73900e-03 6.36172e-03 3.76005e-03 8.63353e-04
           1.41700e-03 6.39313e-03 1.01068e-02 6.54058e-03 1.41328e-03
           8.78800e-04 3.85956e-03 6.53076e-03 3.87274e-03 8.56350e-04
           9.34199e-05 8.50329e-04 1.45285e-03 8.64134e-04 8.75877e-05

           2.38015e-05 4.48622e-04 8.48758e-04 4.62728e-04 2.22474e-05
           4.71347e-04 2.24991e-03 3.75139e-03 2.25720e-03 4.79324e-04
           8.44942e-04 3.78035e-03 6.45947e-03 3.85531e-03 8.84527e-04
           4.81348e-04 2.29105e-03 3.82272e-03 2.25325e-03 4.73315e-04
           2.51661e-05 4.66041e-04 8.46505e-04 4.72240e-04 2.27933e-05

           0.00000e+00 2.31453e-05 8.60000e-05 2.32035e-05 0.00000e+00
           2.44798e-05 4.64417e-04 8.52973e-04 4.73360e-04 2.48199e-05
           8.64314e-05 8.46557e-04 1.38906e-03 8.44960e-04 9.40792e-05
           2.43368e-05 4.86393e-04 8.61876e-04 4.80547e-04 2.51505e-05
           0.00000e+00 2.34762e-05 8.79243e-05 2.52563e-05 0.00000e+00
        </DataArray>
        <DataArray type="Float32" Name="Tally_Error_-1.00000e+36_lt_T[0]_lt_0.00000e+00" format="ascii">
           0.00000e+00 0.00000e+00 0.00000e+00 0.00000e+00 0.00000e+00
           0.00000e+00 0.00000e+00 0.00000e+00 0.00000e+00 0.00000e+00
           0.00000e+00 0.00000e+00 0.00000e+00 0.00000e+00 0.00000e+00
           0.00000e+00 0.00000e+00 0.00000e+00 0.00000e+00 0.00000e+00
           0.00000e+00 0.00000e+00 0.00000e+00 0.00000e+00 0.00000e+00

           0.00000e+00 0.00000e+00 0.00000e+00 0.00000e+00 0.00000e+00
           0.00000e+00 0.00000e+00 0.00000e+00 0.00000e+00 0.00000e+00
           0.00000e+00 0.00000e+00 0.00000e+00 0.00000e+00 0.00000e+00
           0.00000e+00 0.00000e+00 0.00000e+00 0.00000e+00 0.00000e+00
           0.00000e+00 0.00000e+00 0.00000e+00 0.00000e+00 0.00000e+00

           0.00000e+00 0.00000e+00 0.00000e+00 0.00000e+00 0.00000e+00
           0.00000e+00 0.00000e+00 0.00000e+00 0.00000e+00 0.00000e+00
           0.00000e+00 0.00000e+00 0.00000e+00 0.00000e+00 0.00000e+00
           0.00000e+00 0.00000e+00 0.00000e+00 0.00000e+00 0.00000e+00
           0.00000e+00 0.00000e+00 0.00000e+00 0.00000e+00 0.00000e+00

           0.00000e+00 0.00000e+00 0.00000e+00 0.00000e+00 0.00000e+00
           0.00000e+00 0.00000e+00 0.00000e+00 0.00000e+00 0.00000e+00
           0.00000e+00 0.00000e+00 0.00000e+00 0.00000e+00 0.00000e+00
           0.00000e+00 0.00000e+00 0.00000e+00 0.00000e+00 0.00000e+00
           0.00000e+00 0.00000e+00 0.00000e+00 0.00000e+00 0.00000e+00

           0.00000e+00 0.00000e+00 0.00000e+00 0.00000e+00 0.00000e+00
           0.00000e+00 0.00000e+00 0.00000e+00 0.00000e+00 0.00000e+00
           0.00000e+00 0.00000e+00 0.00000e+00 0.00000e+00 0.00000e+00
           0.00000e+00 0.00000e+00 0.00000e+00 0.00000e+00 0.00000e+00
           0.00000e+00 0.00000e+00 0.00000e+00 0.00000e+00 0.00000e+00
        </DataArray>

        <DataArray type="Float32" Name="Tally_Error_0.00000e+00_lt_T[1]_lt_1.00000e+01" format="ascii">
           0.00000e+00 4.88847e-02 3.11361e-02 4.94991e-02 0.00000e+00
           5.03490e-02 1.90240e-02 1.54639e-02 1.86990e-02 5.28429e-02
           3.15249e-02 1.55102e-02 1.28634e-02 1.55488e-02 3.12999e-02
           5.18586e-02 1.91436e-02 1.55636e-02 1.90755e-02 4.92480e-02
           0.00000e+00 5.06863e-02 3.12284e-02 4.98407e-02 0.00000e+00

           4.96904e-02 1.89396e-02 1.55009e-02 1.91141e-02 5.04609e-02
           1.91085e-02 1.02654e-02 7.50970e-03 1.02174e-02 1.90060e-02
           1.56885e-02 7.57485e-03 5.38725e-03 7.53810e-03 1.54503e-02
           1.91119e-02 1.02527e-02 7.51935e-03 1.01043e-02 1.87981e-02
           4.86007e-02 1.90298e-02 1.54970e-02 1.87936e-02 4.90309e-02

           3.18304e-02 1.55806e-02 1.29949e-02 1.55893e-02 3.14047e-02
           1.58695e-02 7.63607e-03 5.48056e-03 7.61857e-03 1.55950e-02
           1.29489e-02 5.49155e-03 4.13818e-03 5.41744e-03 1.28958e-02
           1.53405e-02 7.58619e-03 5.40002e-03 7.51390e-03 1.56185e-02
           3.11345e-02 1.56832e-02 1.27170e-02 1.53882e-02 3.21851e-02

           4.96645e-02 1.94747e-02 1.56444e-02 1.92055e-02 5.18258e-02
           1.91863e-02 1.02808e-02 7.61742e-03 1.02407e-02 1.91231e-02
           1.56138e-02 7.58923e-03 5.44933e-03 7.52960e-03 1.53732e-02
           1.90544e-02 1.01770e-02 7.54137e-03 1.01782e-02 1.90042e-02
           5.04304e-02 1.89283e-02 1.56450e-02 1.89532e-02 4.93274e-02

           0.00000e+00 4.93448e-02 3.20322e-02 5.00704e-02 0.00000e+00
           4.94966e-02 1.91691e-02 1.55683e-02 1.91327e-02 5.07537e-02
           3.20291e-02 1.55759e-02 1.29739e-02 1.55464e-02 3.05642e-02
           4.94249e-02 1.86879e-02 1.55096e-02 1.88552e-02 4.94432e-02
           0.00000e+00 4.94945e-02 3.15191e-02 4.88616e-02 0.00000e+00
        </DataArray>

        <DataArray type="Float32" Name="Tally_Error_1.00000e+01_lt_T[2]_lt_2.00000e+01" format="ascii">
           0.00000e+00 1.59297e-01 9.06984e-02 1.60087e-01 0.00000e+00
           1.84681e-01 4.62642e-02 3.47024e-02 4.59482e-02 1.60181e-01
           9.38374e-02 3.54465e-02 2.87678e-02 3.55591e-02 8.88902e-02
           1.65083e-01 4.51539e-02 3.50480e-02 4.61567e-02 1.47375e-01
           0.00000e+00 1.89101e-01 9.56664e-02 1.62647e-01 0.00000e+00

           1.67238e-01 4.76131e-02 3.44811e-02 4.54391e-02 1.78462e-01
           4.50804e-02 2.60812e-02 2.71519e-02 2.69214e-02 4.64766e-02
           3.56329e-02 2.68264e-02 3.45769e-02 2.66818e-02 3.53697e-02
           4.54540e-02 2.59806e-02 2.68523e-02 2.60693e-02 4.35726e-02
           1.82660e-01 4.70517e-02 3.48813e-02 4.50186e-02 1.84475e-01

           9.20114e-02 3.54475e-02 2.91533e-02 3.45920e-02 9.14067e-02
           3.48221e-02 2.71179e-02 3.77344e-02 2.78310e-02 3.51158e-02
           2.87759e-02 3.54610e-02 7.43558e-02 3.64234e-02 2.89215e-02
           3.64379e-02 2.75222e-02 3.58071e-02 2.61084e-02 3.53161e-02
           9.14440e-02 3.50094e-02 2.94556e-02 3.56995e-02 9.48247e-02

           1.68131e-01 4.68500e-02 3.56329e-02 4.61482e-02 1.67446e-01
           4.60961e-02 2.64703e-02 2.70942e-02 2.62548e-02 4.75518e-02
           3.54809e-02 2.73065e-02 3.56857e-02 2.72167e-02 3.39609e-02
           4.54898e-02 2.64180e-02 2.71501e-02 2.59464e-02 4.58472e-02
           1.73371e-01 4.60576e-02 3.52528e-02 4.40159e-02 1.71145e-01

           0.00000e+00 1.71216e-01 1.02661e-01 1.56744e-01 0.00000e+00
           1.57551e-01 4.78447e-02 3.55319e-02 4.54218e-02 1.80739e-01
           9.58389e-02 3.58788e-02 2.91716e-02 3.52690e-02 9.82685e-02
           1.69699e-01 4.44737e-02 3.51181e-02 4.47401e-02 1.49226e-01
           0.00000e+00 1.72080e-01 8.81723e-02 1.60616e-01 0.00000e+00
        </DataArray>

        <DataArray type="Float32" Name="Tally_Error_T[total]" format="ascii">
           0.00000e+00 4.75863e-02 3.02177e-02 4.81578e-02 0.00000e+00
           4.89252e-02 1.86407e-02 1.51696e-02 1.82942e-02 5.12274e-02
           3.08877e-02 1.52347e-02 1.26649e-02 1.52701e-02 3.04413e-02
           5.02686e-02 1.87360e-02 1.52639e-02 1.86523e-02 4.76906e-02
           0.00000e+00 4.96029e-02 3.05124e-02 4.81282e-02 0.00000e+00

           4.90417e-02 1.85364e-02 1.51907e-02 1.87044e-02 4.93041e-02
           1.86797e-02 1.01749e-02 7.48889e-03 1.01403e-02 1.86283e-02
           1.53728e-02 7.55802e-03 5.38112e-03 7.52092e-03 1.51594e-02
           1.86942e-02 1.01660e-02 7.50065e-03 1.00217e-02 1.84047e-02
           4.76729e-02 1.86478e-02 1.51893e-02 1.83947e-02 4.80244e-02

           3.11507e-02 1.52797e-02 1.27914e-02 1.52542e-02 3.07479e-02
           1.55535e-02 7.61004e-03 5.47309e-03 7.59910e-03 1.53120e-02
           1.27593e-02 5.48451e-03 4.13491e-03 5.41055e-03 1.27082e-02
           1.50727e-02 7.57145e-03 5.39315e-03 7.48915e-03 1.53133e-02
           3.05112e-02 1.53543e-02 1.25328e-02 1.50718e-02 3.14148e-02

           4.86857e-02 1.91259e-02 1.53304e-02 1.88266e-02 5.04503e-02
           1.87989e-02 1.01973e-02 7.59403e-03 1.01554e-02 1.87529e-02
           1.53346e-02 7.56735e-03 5.44151e-03 7.51276e-03 1.50526e-02
           1.86884e-02 1.00863e-02 7.51934e-03 1.00983e-02 1.86092e-02
           4.91064e-02 1.85540e-02 1.53249e-02 1.85715e-02 4.85003e-02

           0.00000e+00 4.82533e-02 3.13019e-02 4.88352e-02 0.00000e+00
           4.80856e-02 1.87617e-02 1.52671e-02 1.87652e-02 4.99492e-02
           3.14118e-02 1.52624e-02 1.27826e-02 1.52568e-02 2.98857e-02
           4.84267e-02 1.82721e-02 1.51994e-02 1.84485e-02 4.80859e-02
           0.00000e+00 4.84800e-02 3.07617e-02 4.77751e-02 0.00000e+00
        </DataArray>
      </CellData>
    </Piece>
  </StructuredGrid>
</VTKFile>
