<?xml version="1.0"?>
<VTKFile type="StructuredGrid" version="0.1">
  <StructuredGrid WholeExtent="0 5 0 5 0 5">
    <Piece Extent="0 5 0 5 0 5">
      <Points>
        <DataArray type="Float32" format="ascii" NumberOfComponents="3">
          -1.00000e+01 -1.00000e+01 -1.00000e+01
          -6.00000e+00 -1.00000e+01 -1.00000e+01
          -2.00000e+00 -1.00000e+01 -1.00000e+01
           2.00000e+00 -1.00000e+01 -1.00000e+01
           6.00000e+00 -1.00000e+01 -1.00000e+01
           1.00000e+01 -1.00000e+01 -1.00000e+01
          -1.00000e+01 -6.00000e+00 -1.00000e+01
          -6.00000e+00 -6.00000e+00 -1.00000e+01
          -2.00000e+00 -6.00000e+00 -1.00000e+01
           2.00000e+00 -6.00000e+00 -1.00000e+01
           6.00000e+00 -6.00000e+00 -1.00000e+01
           1.00000e+01 -6.00000e+00 -1.00000e+01
          -1.00000e+01 -2.00000e+00 -1.00000e+01
          -6.00000e+00 -2.00000e+00 -1.00000e+01
          -2.00000e+00 -2.00000e+00 -1.00000e+01
           2.00000e+00 -2.00000e+00 -1.00000e+01
           6.00000e+00 -2.00000e+00 -1.00000e+01
           1.00000e+01 -2.00000e+00 -1.00000e+01
          -1.00000e+01  2.00000e+00 -1.00000e+01
          -6.00000e+00  2.00000e+00 -1.00000e+01
          -2.00000e+00  2.00000e+00 -1.00000e+01
           2.00000e+00  2.00000e+00 -1.00000e+01
           6.00000e+00  2.00000e+00 -1.00000e+01
           1.00000e+01  2.00000e+00 -1.00000e+01
          -1.00000e+01  6.00000e+00 -1.00000e+01
          -6.00000e+00  6.00000e+00 -1.00000e+01
          -2.00000e+00  6.00000e+00 -1.00000e+01
           2.00000e+00  6.00000e+00 -1.00000e+01
           6.00000e+00  6.00000e+00 -1.00000e+01
           1.00000e+01  6.00000e+00 -1.00000e+01
          -1.00000e+01  1.00000e+01 -1.00000e+01
          -6.00000e+00  1.00000e+01 -1.00000e+01
          -2.00000e+00  1.00000e+01 -1.00000e+01
           2.00000e+00  1.00000e+01 -1.00000e+01
           6.00000e+00  1.00000e+01 -1.00000e+01
           1.00000e+01  1.00000e+01 -1.00000e+01
          -1.00000e+01 -1.00000e+01 -6.00000e+00
          -6.00000e+00 -1.00000e+01 -6.00000e+00
          -2.00000e+00 -1.00000e+01 -6.00000e+00
           2.00000e+00 -1.00000e+01 -6.00000e+00
           6.00000e+00 -1.00000e+01 -6.00000e+00
           1.00000e+01 -1.00000e+01 -6.00000e+00
          -1.00000e+01 -6.00000e+00 -6.00000e+00
          -6.00000e+00 -6.00000e+00 -6.00000e+00
          -2.00000e+00 -6.00000e+00 -6.00000e+00
           2.00000e+00 -6.00000e+00 -6.00000e+00
           6.00000e+00 -6.00000e+00 -6.00000e+00
           1.00000e+01 -6.00000e+00 -6.00000e+00
          -1.00000e+01 -2.00000e+00 -6.00000e+00
          -6.00000e+00 -2.00000e+00 -6.00000e+00
          -2.00000e+00 -2.00000e+00 -6.00000e+00
           2.00000e+00 -2.00000e+00 -6.00000e+00
           6.00000e+00 -2.00000e+00 -6.00000e+00
           1.00000e+01 -2.00000e+00 -6.00000e+00
          -1.00000e+01  2.00000e+00 -6.00000e+00
          -6.00000e+00  2.00000e+00 -6.00000e+00
          -2.00000e+00  2.00000e+00 -6.00000e+00
           2.00000e+00  2.00000e+00 -6.00000e+00
           6.00000e+00  2.00000e+00 -6.00000e+00
           1.00000e+01  2.00000e+00 -6.00000e+00
          -1.00000e+01  6.00000e+00 -6.00000e+00
          -6.00000e+00  6.00000e+00 -6.00000e+00
          -2.00000e+00  6.00000e+00 -6.00000e+00
           2.00000e+00  6.00000e+00 -6.00000e+00
           6.00000e+00  6.00000e+00 -6.00000e+00
           1.00000e+01  6.00000e+00 -6.00000e+00
          -1.00000e+01  1.00000e+01 -6.00000e+00
          -6.00000e+00  1.00000e+01 -6.00000e+00
          -2.00000e+00  1.00000e+01 -6.00000e+00
           2.00000e+00  1.00000e+01 -6.00000e+00
           6.00000e+00  1.00000e+01 -6.00000e+00
           1.00000e+01  1.00000e+01 -6.00000e+00
          -1.00000e+01 -1.00000e+01 -2.00000e+00
          -6.00000e+00 -1.00000e+01 -2.00000e+00
          -2.00000e+00 -1.00000e+01 -2.00000e+00
           2.00000e+00 -1.00000e+01 -2.00000e+00
           6.00000e+00 -1.00000e+01 -2.00000e+00
           1.00000e+01 -1.00000e+01 -2.00000e+00
          -1.00000e+01 -6.00000e+00 -2.00000e+00
          -6.00000e+00 -6.00000e+00 -2.00000e+00
          -2.00000e+00 -6.00000e+00 -2.00000e+00
           2.00000e+00 -6.00000e+00 -2.00000e+00
           6.00000e+00 -6.00000e+00 -2.00000e+00
           1.00000e+01 -6.00000e+00 -2.00000e+00
          -1.00000e+01 -2.00000e+00 -2.00000e+00
          -6.00000e+00 -2.00000e+00 -2.00000e+00
          -2.00000e+00 -2.00000e+00 -2.00000e+00
           2.00000e+00 -2.00000e+00 -2.00000e+00
           6.00000e+00 -2.00000e+00 -2.00000e+00
           1.00000e+01 -2.00000e+00 -2.00000e+00
          -1.00000e+01  2.00000e+00 -2.00000e+00
          -6.00000e+00  2.00000e+00 -2.00000e+00
          -2.00000e+00  2.00000e+00 -2.00000e+00
           2.00000e+00  2.00000e+00 -2.00000e+00
           6.00000e+00  2.00000e+00 -2.00000e+00
           1.00000e+01  2.00000e+00 -2.00000e+00
          -1.00000e+01  6.00000e+00 -2.00000e+00
          -6.00000e+00  6.00000e+00 -2.00000e+00
          -2.00000e+00  6.00000e+00 -2.00000e+00
           2.00000e+00  6.00000e+00 -2.00000e+00
           6.00000e+00  6.00000e+00 -2.00000e+00
           1.00000e+01  6.00000e+00 -2.00000e+00
          -1.00000e+01  1.00000e+01 -2.00000e+00
          -6.00000e+00  1.00000e+01 -2.00000e+00
          -2.00000e+00  1.00000e+01 -2.00000e+00
           2.00000e+00  1.00000e+01 -2.00000e+00
           6.00000e+00  1.00000e+01 -2.00000e+00
           1.00000e+01  1.00000e+01 -2.00000e+00
          -1.00000e+01 -1.00000e+01  2.00000e+00
          -6.00000e+00 -1.00000e+01  2.00000e+00
          -2.00000e+00 -1.00000e+01  2.00000e+00
           2.00000e+00 -1.00000e+01  2.00000e+00
           6.00000e+00 -1.00000e+01  2.00000e+00
           1.00000e+01 -1.00000e+01  2.00000e+00
          -1.00000e+01 -6.00000e+00  2.00000e+00
          -6.00000e+00 -6.00000e+00  2.00000e+00
          -2.00000e+00 -6.00000e+00  2.00000e+00
           2.00000e+00 -6.00000e+00  2.00000e+00
           6.00000e+00 -6.00000e+00  2.00000e+00
           1.00000e+01 -6.00000e+00  2.00000e+00
          -1.00000e+01 -2.00000e+00  2.00000e+00
          -6.00000e+00 -2.00000e+00  2.00000e+00
          -2.00000e+00 -2.00000e+00  2.00000e+00
           2.00000e+00 -2.00000e+00  2.00000e+00
           6.00000e+00 -2.00000e+00  2.00000e+00
           1.00000e+01 -2.00000e+00  2.00000e+00
          -1.00000e+01  2.00000e+00  2.00000e+00
          -6.00000e+00  2.00000e+00  2.00000e+00
          -2.00000e+00  2.00000e+00  2.00000e+00
           2.00000e+00  2.00000e+00  2.00000e+00
           6.00000e+00  2.00000e+00  2.00000e+00
           1.00000e+01  2.00000e+00  2.00000e+00
          -1.00000e+01  6.00000e+00  2.00000e+00
          -6.00000e+00  6.00000e+00  2.00000e+00
          -2.00000e+00  6.00000e+00  2.00000e+00
           2.00000e+00  6.00000e+00  2.00000e+00
           6.00000e+00  6.00000e+00  2.00000e+00
           1.00000e+01  6.00000e+00  2.00000e+00
          -1.00000e+01  1.00000e+01  2.00000e+00
          -6.00000e+00  1.00000e+01  2.00000e+00
          -2.00000e+00  1.00000e+01  2.00000e+00
           2.00000e+00  1.00000e+01  2.00000e+00
           6.00000e+00  1.00000e+01  2.00000e+00
           1.00000e+01  1.00000e+01  2.00000e+00
          -1.00000e+01 -1.00000e+01  6.00000e+00
          -6.00000e+00 -1.00000e+01  6.00000e+00
          -2.00000e+00 -1.00000e+01  6.00000e+00
           2.00000e+00 -1.00000e+01  6.00000e+00
           6.00000e+00 -1.00000e+01  6.00000e+00
           1.00000e+01 -1.00000e+01  6.00000e+00
          -1.00000e+01 -6.00000e+00  6.00000e+00
          -6.00000e+00 -6.00000e+00  6.00000e+00
          -2.00000e+00 -6.00000e+00  6.00000e+00
           2.00000e+00 -6.00000e+00  6.00000e+00
           6.00000e+00 -6.00000e+00  6.00000e+00
           1.00000e+01 -6.00000e+00  6.00000e+00
          -1.00000e+01 -2.00000e+00  6.00000e+00
          -6.00000e+00 -2.00000e+00  6.00000e+00
          -2.00000e+00 -2.00000e+00  6.00000e+00
           2.00000e+00 -2.00000e+00  6.00000e+00
           6.00000e+00 -2.00000e+00  6.00000e+00
           1.00000e+01 -2.00000e+00  6.00000e+00
          -1.00000e+01  2.00000e+00  6.00000e+00
          -6.00000e+00  2.00000e+00  6.00000e+00
          -2.00000e+00  2.00000e+00  6.00000e+00
           2.00000e+00  2.00000e+00  6.00000e+00
           6.00000e+00  2.00000e+00  6.00000e+00
           1.00000e+01  2.00000e+00  6.00000e+00
          -1.00000e+01  6.00000e+00  6.00000e+00
          -6.00000e+00  6.00000e+00  6.00000e+00
          -2.00000e+00  6.00000e+00  6.00000e+00
           2.00000e+00  6.00000e+00  6.00000e+00
           6.00000e+00  6.00000e+00  6.00000e+00
           1.00000e+01  6.00000e+00  6.00000e+00
          -1.00000e+01  1.00000e+01  6.00000e+00
          -6.00000e+00  1.00000e+01  6.00000e+00
          -2.00000e+00  1.00000e+01  6.00000e+00
           2.00000e+00  1.00000e+01  6.00000e+00
           6.00000e+00  1.00000e+01  6.00000e+00
           1.00000e+01  1.00000e+01  6.00000e+00
          -1.00000e+01 -1.00000e+01  1.00000e+01
          -6.00000e+00 -1.00000e+01  1.00000e+01
          -2.00000e+00 -1.00000e+01  1.00000e+01
           2.00000e+00 -1.00000e+01  1.00000e+01
           6.00000e+00 -1.00000e+01  1.00000e+01
           1.00000e+01 -1.00000e+01  1.00000e+01
          -1.00000e+01 -6.00000e+00  1.00000e+01
          -6.00000e+00 -6.00000e+00  1.00000e+01
          -2.00000e+00 -6.00000e+00  1.00000e+01
           2.00000e+00 -6.00000e+00  1.00000e+01
           6.00000e+00 -6.00000e+00  1.00000e+01
           1.00000e+01 -6.00000e+00  1.00000e+01
          -1.00000e+01 -2.00000e+00  1.00000e+01
          -6.00000e+00 -2.00000e+00  1.00000e+01
          -2.00000e+00 -2.00000e+00  1.00000e+01
           2.00000e+00 -2.00000e+00  1.00000e+01
           6.00000e+00 -2.00000e+00  1.00000e+01
           1.00000e+01 -2.00000e+00  1.00000e+01
          -1.00000e+01  2.00000e+00  1.00000e+01
          -6.00000e+00  2.00000e+00  1.00000e+01
          -2.00000e+00  2.00000e+00  1.00000e+01
           2.00000e+00  2.00000e+00  1.00000e+01
           6.00000e+00  2.00000e+00  1.00000e+01
           1.00000e+01  2.00000e+00  1.00000e+01
          -1.00000e+01  6.00000e+00  1.00000e+01
          -6.00000e+00  6.00000e+00  1.00000e+01
          -2.00000e+00  6.00000e+00  1.00000e+01
           2.00000e+00  6.00000e+00  1.00000e+01
           6.00000e+00  6.00000e+00  1.00000e+01
           1.00000e+01  6.00000e+00  1.00000e+01
          -1.00000e+01  1.00000e+01  1.00000e+01
          -6.00000e+00  1.00000e+01  1.00000e+01
          -2.00000e+00  1.00000e+01  1.00000e+01
           2.00000e+00  1.00000e+01  1.00000e+01
           6.00000e+00  1.00000e+01  1.00000e+01
           1.00000e+01  1.00000e+01  1.00000e+01
        </DataArray>
      </Points>
      <CellData Scalars="cell_scalars">
        <DataArray type="Float32" Name="Tally_Value" format="ascii">
           0.00000e+00 3.69475e-05 1.39582e-04 3.77118e-05 0.00000e+00
           3.53502e-05 7.49427e-04 1.35109e-03 7.73150e-04 3.47488e-05
           1.42250e-04 1.34180e-03 2.15292e-03 1.34746e-03 1.43911e-04
           3.40282e-05 7.47811e-04 1.37465e-03 7.60833e-04 3.82956e-05
           0.00000e+00 3.41830e-05 1.41327e-04 3.73584e-05 0.00000e+00

           3.62090e-05 7.62069e-04 1.37536e-03 7.45296e-04 3.75868e-05
           7.33301e-04 3.00926e-03 4.50828e-03 3.03527e-03 7.44880e-04
           1.32964e-03 4.43576e-03 6.84102e-03 4.58093e-03 1.35666e-03
           7.65690e-04 3.08261e-03 4.53495e-03 3.18476e-03 7.91784e-04
           3.68403e-05 7.61465e-04 1.38367e-03 7.78854e-04 3.70674e-05

           1.37775e-04 1.32716e-03 2.06679e-03 1.35886e-03 1.47996e-04
           1.29946e-03 4.41274e-03 6.61561e-03 4.42696e-03 1.35424e-03
           2.15195e-03 6.66139e-03 1.01166e-02 6.80238e-03 2.13099e-03
           1.34538e-03 4.51874e-03 6.80129e-03 4.56041e-03 1.35637e-03
           1.43189e-04 1.35092e-03 2.16239e-03 1.36599e-03 1.38744e-04

           3.74830e-05 7.36052e-04 1.36441e-03 7.44304e-04 3.35329e-05
           7.61989e-04 3.07191e-03 4.44750e-03 3.06197e-03 7.60527e-04
           1.32499e-03 4.46526e-03 6.72061e-03 4.51560e-03 1.40107e-03
           7.52388e-04 3.10717e-03 4.50426e-03 3.07958e-03 7.74759e-04
           3.82497e-05 7.53952e-04 1.36901e-03 7.59158e-04 3.57284e-05

           0.00000e+00 3.58600e-05 1.34978e-04 3.59797e-05 0.00000e+00
           3.61956e-05 7.44467e-04 1.35988e-03 7.54979e-04 3.64590e-05
           1.36487e-04 1.32537e-03 2.08841e-03 1.34197e-03 1.46464e-04
           3.66162e-05 7.62371e-04 1.33492e-03 7.73750e-04 3.74333e-05
           0.00000e+00 3.68633e-05 1.39904e-04 3.82987e-05 0.00000e+00
        </DataArray>
        <DataArray type="Float32" Name="Tally_Error" format="ascii">
           0.00000e+00 4.03681e-02 2.59646e-02 3.99945e-02 0.00000e+00
           4.09580e-02 1.68260e-02 1.42383e-02 1.68348e-02 4.22254e-02
           2.61713e-02 1.42947e-02 1.24366e-02 1.44459e-02 2.61442e-02
           4.22188e-02 1.69225e-02 1.43214e-02 1.69347e-02 3.94563e-02
           0.00000e+00 4.24136e-02 2.60927e-02 4.05806e-02 0.00000e+00

           4.03439e-02 1.68581e-02 1.41942e-02 1.70074e-02 4.12514e-02
           1.70049e-02 1.01983e-02 7.60739e-03 1.02561e-02 1.69798e-02
           1.44444e-02 7.68428e-03 5.34842e-03 7.63557e-03 1.42757e-02
           1.69237e-02 1.02282e-02 7.58257e-03 1.00792e-02 1.65978e-02
           3.97775e-02 1.68960e-02 1.42026e-02 1.66940e-02 4.10088e-02

           2.63925e-02 1.44828e-02 1.24468e-02 1.43389e-02 2.60947e-02
           1.46335e-02 7.69453e-03 5.42822e-03 7.71418e-03 1.43079e-02
           1.24541e-02 5.44920e-03 4.13241e-03 5.36921e-03 1.24066e-02
           1.42335e-02 7.66162e-03 5.35042e-03 7.58087e-03 1.43687e-02
           2.65739e-02 1.44081e-02 1.21070e-02 1.41291e-02 2.66507e-02

           3.99354e-02 1.73414e-02 1.43684e-02 1.69393e-02 4.16575e-02
           1.70129e-02 1.02445e-02 7.72235e-03 1.02376e-02 1.71994e-02
           1.43269e-02 7.67438e-03 5.40430e-03 7.63093e-03 1.42801e-02
           1.71016e-02 1.01719e-02 7.61966e-03 1.02120e-02 1.68196e-02
           4.20879e-02 1.69614e-02 1.43081e-02 1.69532e-02 4.06005e-02

           0.00000e+00 4.08117e-02 2.70273e-02 4.19803e-02 0.00000e+00
           4.10478e-02 1.71895e-02 1.43942e-02 1.69727e-02 4.24320e-02
           2.73197e-02 1.42829e-02 1.24003e-02 1.43227e-02 2.60739e-02
           4.15425e-02 1.65779e-02 1.43047e-02 1.67820e-02 3.98354e-02
           0.00000e+00 4.08364e-02 2.61893e-02 3.96168e-02 0.00000e+00
        </DataArray>
      </CellData>
    </Piece>
  </StructuredGrid>
</VTKFile>
