<?xml version="1.0"?>
<VTKFile type="StructuredGrid" version="0.1">
  <StructuredGrid WholeExtent="0 4 0 5 0 4">
    <Piece Extent="0 4 0 5 0 4">
      <Points>
        <DataArray type="Float32" format="ascii" NumberOfComponents="3">
           0.00000e+00  0.00000e+00  0.00000e+00
           2.50000e+00  0.00000e+00  0.00000e+00
           5.00000e+00  0.00000e+00  0.00000e+00
           7.50000e+00  0.00000e+00  0.00000e+00
           1.00000e+01  0.00000e+00  0.00000e+00
           0.00000e+00  0.00000e+00  2.00000e+00
           2.50000e+00  0.00000e+00  2.00000e+00
           5.00000e+00  0.00000e+00  2.00000e+00
           7.50000e+00  0.00000e+00  2.00000e+00
           1.00000e+01  0.00000e+00  2.00000e+00
           0.00000e+00  0.00000e+00  4.00000e+00
           2.50000e+00  0.00000e+00  4.00000e+00
           5.00000e+00  0.00000e+00  4.00000e+00
           7.50000e+00  0.00000e+00  4.00000e+00
           1.00000e+01  0.00000e+00  4.00000e+00
           0.00000e+00  0.00000e+00  6.00000e+00
           2.50000e+00  0.00000e+00  6.00000e+00
           5.00000e+00  0.00000e+00  6.00000e+00
           7.50000e+00  0.00000e+00  6.00000e+00
           1.00000e+01  0.00000e+00  6.00000e+00
           0.00000e+00  0.00000e+00  8.00000e+00
           2.50000e+00  0.00000e+00  8.00000e+00
           5.00000e+00  0.00000e+00  8.00000e+00
           7.50000e+00  0.00000e+00  8.00000e+00
           1.00000e+01  0.00000e+00  8.00000e+00
           0.00000e+00  0.00000e+00  1.00000e+01
           2.50000e+00  0.00000e+00  1.00000e+01
           5.00000e+00  0.00000e+00  1.00000e+01
           7.50000e+00  0.00000e+00  1.00000e+01
           1.00000e+01  0.00000e+00  1.00000e+01
           0.00000e+00  0.00000e+00  0.00000e+00
           1.53081e-16  2.50000e+00  0.00000e+00
           3.06162e-16  5.00000e+00  0.00000e+00
           4.59243e-16  7.50000e+00  0.00000e+00
           6.12323e-16  1.00000e+01  0.00000e+00
           0.00000e+00  0.00000e+00  2.00000e+00
           1.53081e-16  2.50000e+00  2.00000e+00
           3.06162e-16  5.00000e+00  2.00000e+00
           4.59243e-16  7.50000e+00  2.00000e+00
           6.12323e-16  1.00000e+01  2.00000e+00
           0.00000e+00  0.00000e+00  4.00000e+00
           1.53081e-16  2.50000e+00  4.00000e+00
           3.06162e-16  5.00000e+00  4.00000e+00
           4.59243e-16  7.50000e+00  4.00000e+00
           6.12323e-16  1.00000e+01  4.00000e+00
           0.00000e+00  0.00000e+00  6.00000e+00
           1.53081e-16  2.50000e+00  6.00000e+00
           3.06162e-16  5.00000e+00  6.00000e+00
           4.59243e-16  7.50000e+00  6.00000e+00
           6.12323e-16  1.00000e+01  6.00000e+00
           0.00000e+00  0.00000e+00  8.00000e+00
           1.53081e-16  2.50000e+00  8.00000e+00
           3.06162e-16  5.00000e+00  8.00000e+00
           4.59243e-16  7.50000e+00  8.00000e+00
           6.12323e-16  1.00000e+01  8.00000e+00
           0.00000e+00  0.00000e+00  1.00000e+01
           1.53081e-16  2.50000e+00  1.00000e+01
           3.06162e-16  5.00000e+00  1.00000e+01
           4.59243e-16  7.50000e+00  1.00000e+01
           6.12323e-16  1.00000e+01  1.00000e+01
          -0.00000e+00  0.00000e+00  0.00000e+00
          -2.50000e+00  3.06162e-16  0.00000e+00
          -5.00000e+00  6.12323e-16  0.00000e+00
          -7.50000e+00  9.18485e-16  0.00000e+00
          -1.00000e+01  1.22465e-15  0.00000e+00
          -0.00000e+00  0.00000e+00  2.00000e+00
          -2.50000e+00  3.06162e-16  2.00000e+00
          -5.00000e+00  6.12323e-16  2.00000e+00
          -7.50000e+00  9.18485e-16  2.00000e+00
          -1.00000e+01  1.22465e-15  2.00000e+00
          -0.00000e+00  0.00000e+00  4.00000e+00
          -2.50000e+00  3.06162e-16  4.00000e+00
          -5.00000e+00  6.12323e-16  4.00000e+00
          -7.50000e+00  9.18485e-16  4.00000e+00
          -1.00000e+01  1.22465e-15  4.00000e+00
          -0.00000e+00  0.00000e+00  6.00000e+00
          -2.50000e+00  3.06162e-16  6.00000e+00
          -5.00000e+00  6.12323e-16  6.00000e+00
          -7.50000e+00  9.18485e-16  6.00000e+00
          -1.00000e+01  1.22465e-15  6.00000e+00
          -0.00000e+00  0.00000e+00  8.00000e+00
          -2.50000e+00  3.06162e-16  8.00000e+00
          -5.00000e+00  6.12323e-16  8.00000e+00
          -7.50000e+00  9.18485e-16  8.00000e+00
          -1.00000e+01  1.22465e-15  8.00000e+00
          -0.00000e+00  0.00000e+00  1.00000e+01
          -2.50000e+00  3.06162e-16  1.00000e+01
          -5.00000e+00  6.12323e-16  1.00000e+01
          -7.50000e+00  9.18485e-16  1.00000e+01
          -1.00000e+01  1.22465e-15  1.00000e+01
          -0.00000e+00 -0.00000e+00  0.00000e+00
          -4.59243e-16 -2.50000e+00  0.00000e+00
          -9.18485e-16 -5.00000e+00  0.00000e+00
          -1.37773e-15 -7.50000e+00  0.00000e+00
          -1.83697e-15 -1.00000e+01  0.00000e+00
          -0.00000e+00 -0.00000e+00  2.00000e+00
          -4.59243e-16 -2.50000e+00  2.00000e+00
          -9.18485e-16 -5.00000e+00  2.00000e+00
          -1.37773e-15 -7.50000e+00  2.00000e+00
          -1.83697e-15 -1.00000e+01  2.00000e+00
          -0.00000e+00 -0.00000e+00  4.00000e+00
          -4.59243e-16 -2.50000e+00  4.00000e+00
          -9.18485e-16 -5.00000e+00  4.00000e+00
          -1.37773e-15 -7.50000e+00  4.00000e+00
          -1.83697e-15 -1.00000e+01  4.00000e+00
          -0.00000e+00 -0.00000e+00  6.00000e+00
          -4.59243e-16 -2.50000e+00  6.00000e+00
          -9.18485e-16 -5.00000e+00  6.00000e+00
          -1.37773e-15 -7.50000e+00  6.00000e+00
          -1.83697e-15 -1.00000e+01  6.00000e+00
          -0.00000e+00 -0.00000e+00  8.00000e+00
          -4.59243e-16 -2.50000e+00  8.00000e+00
          -9.18485e-16 -5.00000e+00  8.00000e+00
          -1.37773e-15 -7.50000e+00  8.00000e+00
          -1.83697e-15 -1.00000e+01  8.00000e+00
          -0.00000e+00 -0.00000e+00  1.00000e+01
          -4.59243e-16 -2.50000e+00  1.00000e+01
          -9.18485e-16 -5.00000e+00  1.00000e+01
          -1.37773e-15 -7.50000e+00  1.00000e+01
          -1.83697e-15 -1.00000e+01  1.00000e+01
           0.00000e+00 -0.00000e+00  0.00000e+00
           2.50000e+00 -6.12323e-16  0.00000e+00
           5.00000e+00 -1.22465e-15  0.00000e+00
           7.50000e+00 -1.83697e-15  0.00000e+00
           1.00000e+01 -2.44929e-15  0.00000e+00
           0.00000e+00 -0.00000e+00  2.00000e+00
           2.50000e+00 -6.12323e-16  2.00000e+00
           5.00000e+00 -1.22465e-15  2.00000e+00
           7.50000e+00 -1.83697e-15  2.00000e+00
           1.00000e+01 -2.44929e-15  2.00000e+00
           0.00000e+00 -0.00000e+00  4.00000e+00
           2.50000e+00 -6.12323e-16  4.00000e+00
           5.00000e+00 -1.22465e-15  4.00000e+00
           7.50000e+00 -1.83697e-15  4.00000e+00
           1.00000e+01 -2.44929e-15  4.00000e+00
           0.00000e+00 -0.00000e+00  6.00000e+00
           2.50000e+00 -6.12323e-16  6.00000e+00
           5.00000e+00 -1.22465e-15  6.00000e+00
           7.50000e+00 -1.83697e-15  6.00000e+00
           1.00000e+01 -2.44929e-15  6.00000e+00
           0.00000e+00 -0.00000e+00  8.00000e+00
           2.50000e+00 -6.12323e-16  8.00000e+00
           5.00000e+00 -1.22465e-15  8.00000e+00
           7.50000e+00 -1.83697e-15  8.00000e+00
           1.00000e+01 -2.44929e-15  8.00000e+00
           0.00000e+00 -0.00000e+00  1.00000e+01
           2.50000e+00 -6.12323e-16  1.00000e+01
           5.00000e+00 -1.22465e-15  1.00000e+01
           7.50000e+00 -1.83697e-15  1.00000e+01
           1.00000e+01 -2.44929e-15  1.00000e+01
        </DataArray>
      </Points>
      <CellData Scalars="cell_scalars">
        <DataArray type="Float32" Name="Tally_Value_0.00000e+00_lt_E[0]_lt_1.00000e-09" format="ascii">
           3.51117e-08 3.56968e-07 2.32096e-07 1.62211e-07
           1.42022e-07 3.61427e-07 1.74091e-07 1.89733e-07
           3.30072e-08 2.31667e-07 2.14656e-07 2.06824e-07
           0.00000e+00 9.02227e-08 1.61628e-07 2.39004e-07
           0.00000e+00 0.00000e+00 3.53154e-08 6.58526e-08

           0.00000e+00 0.00000e+00 0.00000e+00 0.00000e+00
           0.00000e+00 0.00000e+00 0.00000e+00 0.00000e+00
           0.00000e+00 0.00000e+00 0.00000e+00 0.00000e+00
           0.00000e+00 0.00000e+00 0.00000e+00 0.00000e+00
           0.00000e+00 0.00000e+00 0.00000e+00 0.00000e+00

           0.00000e+00 0.00000e+00 0.00000e+00 0.00000e+00
           0.00000e+00 0.00000e+00 0.00000e+00 0.00000e+00
           0.00000e+00 0.00000e+00 0.00000e+00 0.00000e+00
           0.00000e+00 0.00000e+00 0.00000e+00 0.00000e+00
           0.00000e+00 0.00000e+00 0.00000e+00 0.00000e+00

           2.90033e-07 3.92923e-07 2.30643e-07 1.04292e-07
           3.48504e-07 2.74804e-07 2.47042e-07 1.24303e-07
           0.00000e+00 1.89795e-07 2.05896e-07 1.54041e-07
           0.00000e+00 3.90139e-08 1.81340e-07 1.97791e-07
           0.00000e+00 0.00000e+00 4.48616e-09 4.62610e-08
        </DataArray>

        <DataArray type="Float32" Name="Tally_Value_1.00000e-09_lt_E[1]_lt_1.00000e-03" format="ascii">
           5.92237e-04 8.13825e-04 5.38345e-04 3.58855e-04
           4.42238e-04 7.68746e-04 6.23438e-04 4.08325e-04
           1.45876e-04 5.21743e-04 6.35345e-04 5.29213e-04
           3.60663e-06 1.86111e-04 4.09566e-04 4.21750e-04
           0.00000e+00 5.25888e-06 8.34879e-05 1.42555e-04

           0.00000e+00 0.00000e+00 0.00000e+00 0.00000e+00
           0.00000e+00 0.00000e+00 0.00000e+00 0.00000e+00
           0.00000e+00 0.00000e+00 0.00000e+00 0.00000e+00
           0.00000e+00 0.00000e+00 0.00000e+00 0.00000e+00
           0.00000e+00 0.00000e+00 0.00000e+00 0.00000e+00

           0.00000e+00 0.00000e+00 0.00000e+00 0.00000e+00
           0.00000e+00 0.00000e+00 0.00000e+00 0.00000e+00
           0.00000e+00 0.00000e+00 0.00000e+00 0.00000e+00
           0.00000e+00 0.00000e+00 0.00000e+00 0.00000e+00
           0.00000e+00 0.00000e+00 0.00000e+00 0.00000e+00

           6.18472e-04 8.22920e-04 5.18318e-04 3.60347e-04
           4.35937e-04 7.69029e-04 6.05449e-04 3.96930e-04
           1.57028e-04 5.12908e-04 6.32852e-04 5.09516e-04
           3.11045e-06 1.88826e-04 3.98446e-04 4.45561e-04
           0.00000e+00 5.08258e-06 7.98159e-05 1.54393e-04
        </DataArray>

        <DataArray type="Float32" Name="Tally_Value_1.00000e-03_lt_E[2]_lt_1.00000e+03" format="ascii">
           7.07440e-04 1.32103e-03 2.68831e-03 3.38436e-03
           4.91257e-04 9.88496e-04 1.97029e-03 2.64207e-03
           1.86419e-04 6.05234e-04 1.04434e-03 1.42472e-03
           7.23815e-06 2.18059e-04 4.87970e-04 5.83698e-04
           0.00000e+00 8.81600e-06 1.05070e-04 1.83599e-04

           0.00000e+00 0.00000e+00 0.00000e+00 0.00000e+00
           0.00000e+00 0.00000e+00 0.00000e+00 0.00000e+00
           0.00000e+00 0.00000e+00 0.00000e+00 0.00000e+00
           0.00000e+00 0.00000e+00 0.00000e+00 0.00000e+00
           0.00000e+00 0.00000e+00 0.00000e+00 0.00000e+00

           0.00000e+00 0.00000e+00 0.00000e+00 0.00000e+00
           0.00000e+00 0.00000e+00 0.00000e+00 0.00000e+00
           0.00000e+00 0.00000e+00 0.00000e+00 0.00000e+00
           0.00000e+00 0.00000e+00 0.00000e+00 0.00000e+00
           0.00000e+00 0.00000e+00 0.00000e+00 0.00000e+00

           7.15258e-04 1.33177e-03 2.68930e-03 3.46442e-03
           5.15168e-04 1.00381e-03 1.94555e-03 2.65476e-03
           1.99760e-04 6.45724e-04 1.06505e-03 1.42497e-03
           6.93636e-06 2.21933e-04 4.69304e-04 5.78938e-04
           0.00000e+00 8.00061e-06 9.75226e-05 1.81004e-04
        </DataArray>

        <DataArray type="Float32" Name="Tally_Value_E[total]" format="ascii">
           1.29971e-03 2.13521e-03 3.22689e-03 3.74338e-03
           9.33638e-04 1.75760e-03 2.59390e-03 3.05059e-03
           3.32328e-04 1.12721e-03 1.67990e-03 1.95414e-03
           1.08448e-05 4.04261e-04 8.97697e-04 1.00569e-03
           0.00000e+00 1.40749e-05 1.88594e-04 3.26220e-04

           0.00000e+00 0.00000e+00 0.00000e+00 0.00000e+00
           0.00000e+00 0.00000e+00 0.00000e+00 0.00000e+00
           0.00000e+00 0.00000e+00 0.00000e+00 0.00000e+00
           0.00000e+00 0.00000e+00 0.00000e+00 0.00000e+00
           0.00000e+00 0.00000e+00 0.00000e+00 0.00000e+00

           0.00000e+00 0.00000e+00 0.00000e+00 0.00000e+00
           0.00000e+00 0.00000e+00 0.00000e+00 0.00000e+00
           0.00000e+00 0.00000e+00 0.00000e+00 0.00000e+00
           0.00000e+00 0.00000e+00 0.00000e+00 0.00000e+00
           0.00000e+00 0.00000e+00 0.00000e+00 0.00000e+00

           1.33402e-03 2.15508e-03 3.20785e-03 3.82487e-03
           9.51454e-04 1.77312e-03 2.55125e-03 3.05182e-03
           3.56788e-04 1.15882e-03 1.69810e-03 1.93464e-03
           1.00468e-05 4.10798e-04 8.67932e-04 1.02470e-03
           0.00000e+00 1.30832e-05 1.77343e-04 3.35444e-04
        </DataArray>
        <DataArray type="Float32" Name="Tally_Error_0.00000e+00_lt_E[0]_lt_1.00000e-09" format="ascii">
           6.35523e-01 2.16864e-01 1.82648e-01 1.93880e-01
           5.40468e-01 2.12025e-01 1.99140e-01 1.76818e-01
           7.20103e-01 2.35673e-01 1.83571e-01 1.62654e-01
           0.00000e+00 5.04556e-01 2.60115e-01 2.12506e-01
           0.00000e+00 0.00000e+00 5.53244e-01 3.62286e-01

           0.00000e+00 0.00000e+00 0.00000e+00 0.00000e+00
           0.00000e+00 0.00000e+00 0.00000e+00 0.00000e+00
           0.00000e+00 0.00000e+00 0.00000e+00 0.00000e+00
           0.00000e+00 0.00000e+00 0.00000e+00 0.00000e+00
           0.00000e+00 0.00000e+00 0.00000e+00 0.00000e+00

           0.00000e+00 0.00000e+00 0.00000e+00 0.00000e+00
           0.00000e+00 0.00000e+00 0.00000e+00 0.00000e+00
           0.00000e+00 0.00000e+00 0.00000e+00 0.00000e+00
           0.00000e+00 0.00000e+00 0.00000e+00 0.00000e+00
           0.00000e+00 0.00000e+00 0.00000e+00 0.00000e+00

           3.61131e-01 2.09171e-01 2.45185e-01 2.34125e-01
           3.37891e-01 2.27056e-01 1.86120e-01 2.18702e-01
           0.00000e+00 2.82587e-01 2.03725e-01 2.07277e-01
           0.00000e+00 5.08610e-01 2.48210e-01 2.08144e-01
           0.00000e+00 0.00000e+00 6.83825e-01 3.64073e-01
        </DataArray>

        <DataArray type="Float32" Name="Tally_Error_1.00000e-09_lt_E[1]_lt_1.00000e-03" format="ascii">
           4.02172e-02 2.55557e-02 2.44826e-02 2.43403e-02
           4.37403e-02 2.63982e-02 2.27688e-02 2.34408e-02
           5.67674e-02 2.94321e-02 2.31822e-02 2.10732e-02
           1.76038e-01 3.94633e-02 2.77277e-02 2.36122e-02
           0.00000e+00 1.17831e-01 4.21756e-02 3.35217e-02

           0.00000e+00 0.00000e+00 0.00000e+00 0.00000e+00
           0.00000e+00 0.00000e+00 0.00000e+00 0.00000e+00
           0.00000e+00 0.00000e+00 0.00000e+00 0.00000e+00
           0.00000e+00 0.00000e+00 0.00000e+00 0.00000e+00
           0.00000e+00 0.00000e+00 0.00000e+00 0.00000e+00

           0.00000e+00 0.00000e+00 0.00000e+00 0.00000e+00
           0.00000e+00 0.00000e+00 0.00000e+00 0.00000e+00
           0.00000e+00 0.00000e+00 0.00000e+00 0.00000e+00
           0.00000e+00 0.00000e+00 0.00000e+00 0.00000e+00
           0.00000e+00 0.00000e+00 0.00000e+00 0.00000e+00

           3.88164e-02 2.56487e-02 2.40214e-02 2.41039e-02
           4.37922e-02 2.59641e-02 2.25536e-02 2.38679e-02
           5.81313e-02 2.96065e-02 2.31586e-02 2.11103e-02
           1.75132e-01 4.03358e-02 2.73083e-02 2.37545e-02
           0.00000e+00 1.03851e-01 4.17301e-02 3.21044e-02
        </DataArray>

        <DataArray type="Float32" Name="Tally_Error_1.00000e-03_lt_E[2]_lt_1.00000e+03" format="ascii">
           3.24496e-02 1.66104e-02 8.95028e-03 6.59238e-03
           3.71197e-02 1.86411e-02 1.04649e-02 7.51099e-03
           4.78171e-02 2.25744e-02 1.41429e-02 1.02938e-02
           1.33165e-01 3.15247e-02 1.95367e-02 1.54499e-02
           0.00000e+00 8.25429e-02 3.21239e-02 2.40567e-02

           0.00000e+00 0.00000e+00 0.00000e+00 0.00000e+00
           0.00000e+00 0.00000e+00 0.00000e+00 0.00000e+00
           0.00000e+00 0.00000e+00 0.00000e+00 0.00000e+00
           0.00000e+00 0.00000e+00 0.00000e+00 0.00000e+00
           0.00000e+00 0.00000e+00 0.00000e+00 0.00000e+00

           0.00000e+00 0.00000e+00 0.00000e+00 0.00000e+00
           0.00000e+00 0.00000e+00 0.00000e+00 0.00000e+00
           0.00000e+00 0.00000e+00 0.00000e+00 0.00000e+00
           0.00000e+00 0.00000e+00 0.00000e+00 0.00000e+00
           0.00000e+00 0.00000e+00 0.00000e+00 0.00000e+00

           3.25305e-02 1.64883e-02 8.93690e-03 6.57169e-03
           3.59406e-02 1.84218e-02 1.05498e-02 7.52164e-03
           4.74948e-02 2.21564e-02 1.41455e-02 1.03143e-02
           1.34333e-01 3.17851e-02 1.97953e-02 1.54568e-02
           0.00000e+00 8.86542e-02 3.33106e-02 2.42895e-02
        </DataArray>

        <DataArray type="Float32" Name="Tally_Error_E[total]" format="ascii">
           2.62199e-02 1.49034e-02 8.88046e-03 6.58566e-03
           2.91036e-02 1.64486e-02 1.02405e-02 7.50327e-03
           3.71132e-02 1.89799e-02 1.31671e-02 1.01071e-02
           1.06424e-01 2.55268e-02 1.71963e-02 1.41236e-02
           0.00000e+00 6.80957e-02 2.65780e-02 2.05437e-02

           0.00000e+00 0.00000e+00 0.00000e+00 0.00000e+00
           0.00000e+00 0.00000e+00 0.00000e+00 0.00000e+00
           0.00000e+00 0.00000e+00 0.00000e+00 0.00000e+00
           0.00000e+00 0.00000e+00 0.00000e+00 0.00000e+00
           0.00000e+00 0.00000e+00 0.00000e+00 0.00000e+00

           0.00000e+00 0.00000e+00 0.00000e+00 0.00000e+00
           0.00000e+00 0.00000e+00 0.00000e+00 0.00000e+00
           0.00000e+00 0.00000e+00 0.00000e+00 0.00000e+00
           0.00000e+00 0.00000e+00 0.00000e+00 0.00000e+00
           0.00000e+00 0.00000e+00 0.00000e+00 0.00000e+00

           2.58072e-02 1.49515e-02 8.80018e-03 6.54774e-03
           2.86784e-02 1.62106e-02 1.01813e-02 7.52171e-03
           3.74495e-02 1.88706e-02 1.32279e-02 1.00159e-02
           1.07421e-01 2.60730e-02 1.73325e-02 1.43154e-02
           0.00000e+00 6.77273e-02 2.70584e-02 2.04160e-02
        </DataArray>
      </CellData>
    </Piece>
  </StructuredGrid>
</VTKFile>
