<?xml version="1.0"?>
<VTKFile type="StructuredGrid" version="0.1">
  <StructuredGrid WholeExtent="0 4 0 5 0 4">
    <Piece Extent="0 4 0 5 0 4">
      <Points>
        <DataArray type="Float32" format="ascii" NumberOfComponents="3">
           0.00000e+00  0.00000e+00  0.00000e+00
           2.50000e+00  0.00000e+00  0.00000e+00
           5.00000e+00  0.00000e+00  0.00000e+00
           7.50000e+00  0.00000e+00  0.00000e+00
           1.00000e+01  0.00000e+00  0.00000e+00
           0.00000e+00  0.00000e+00  2.00000e+00
           2.50000e+00  0.00000e+00  2.00000e+00
           5.00000e+00  0.00000e+00  2.00000e+00
           7.50000e+00  0.00000e+00  2.00000e+00
           1.00000e+01  0.00000e+00  2.00000e+00
           0.00000e+00  0.00000e+00  4.00000e+00
           2.50000e+00  0.00000e+00  4.00000e+00
           5.00000e+00  0.00000e+00  4.00000e+00
           7.50000e+00  0.00000e+00  4.00000e+00
           1.00000e+01  0.00000e+00  4.00000e+00
           0.00000e+00  0.00000e+00  6.00000e+00
           2.50000e+00  0.00000e+00  6.00000e+00
           5.00000e+00  0.00000e+00  6.00000e+00
           7.50000e+00  0.00000e+00  6.00000e+00
           1.00000e+01  0.00000e+00  6.00000e+00
           0.00000e+00  0.00000e+00  8.00000e+00
           2.50000e+00  0.00000e+00  8.00000e+00
           5.00000e+00  0.00000e+00  8.00000e+00
           7.50000e+00  0.00000e+00  8.00000e+00
           1.00000e+01  0.00000e+00  8.00000e+00
           0.00000e+00  0.00000e+00  1.00000e+01
           2.50000e+00  0.00000e+00  1.00000e+01
           5.00000e+00  0.00000e+00  1.00000e+01
           7.50000e+00  0.00000e+00  1.00000e+01
           1.00000e+01  0.00000e+00  1.00000e+01
           0.00000e+00  0.00000e+00  0.00000e+00
           1.53081e-16  2.50000e+00  0.00000e+00
           3.06162e-16  5.00000e+00  0.00000e+00
           4.59243e-16  7.50000e+00  0.00000e+00
           6.12323e-16  1.00000e+01  0.00000e+00
           0.00000e+00  0.00000e+00  2.00000e+00
           1.53081e-16  2.50000e+00  2.00000e+00
           3.06162e-16  5.00000e+00  2.00000e+00
           4.59243e-16  7.50000e+00  2.00000e+00
           6.12323e-16  1.00000e+01  2.00000e+00
           0.00000e+00  0.00000e+00  4.00000e+00
           1.53081e-16  2.50000e+00  4.00000e+00
           3.06162e-16  5.00000e+00  4.00000e+00
           4.59243e-16  7.50000e+00  4.00000e+00
           6.12323e-16  1.00000e+01  4.00000e+00
           0.00000e+00  0.00000e+00  6.00000e+00
           1.53081e-16  2.50000e+00  6.00000e+00
           3.06162e-16  5.00000e+00  6.00000e+00
           4.59243e-16  7.50000e+00  6.00000e+00
           6.12323e-16  1.00000e+01  6.00000e+00
           0.00000e+00  0.00000e+00  8.00000e+00
           1.53081e-16  2.50000e+00  8.00000e+00
           3.06162e-16  5.00000e+00  8.00000e+00
           4.59243e-16  7.50000e+00  8.00000e+00
           6.12323e-16  1.00000e+01  8.00000e+00
           0.00000e+00  0.00000e+00  1.00000e+01
           1.53081e-16  2.50000e+00  1.00000e+01
           3.06162e-16  5.00000e+00  1.00000e+01
           4.59243e-16  7.50000e+00  1.00000e+01
           6.12323e-16  1.00000e+01  1.00000e+01
          -0.00000e+00  0.00000e+00  0.00000e+00
          -2.50000e+00  3.06162e-16  0.00000e+00
          -5.00000e+00  6.12323e-16  0.00000e+00
          -7.50000e+00  9.18485e-16  0.00000e+00
          -1.00000e+01  1.22465e-15  0.00000e+00
          -0.00000e+00  0.00000e+00  2.00000e+00
          -2.50000e+00  3.06162e-16  2.00000e+00
          -5.00000e+00  6.12323e-16  2.00000e+00
          -7.50000e+00  9.18485e-16  2.00000e+00
          -1.00000e+01  1.22465e-15  2.00000e+00
          -0.00000e+00  0.00000e+00  4.00000e+00
          -2.50000e+00  3.06162e-16  4.00000e+00
          -5.00000e+00  6.12323e-16  4.00000e+00
          -7.50000e+00  9.18485e-16  4.00000e+00
          -1.00000e+01  1.22465e-15  4.00000e+00
          -0.00000e+00  0.00000e+00  6.00000e+00
          -2.50000e+00  3.06162e-16  6.00000e+00
          -5.00000e+00  6.12323e-16  6.00000e+00
          -7.50000e+00  9.18485e-16  6.00000e+00
          -1.00000e+01  1.22465e-15  6.00000e+00
          -0.00000e+00  0.00000e+00  8.00000e+00
          -2.50000e+00  3.06162e-16  8.00000e+00
          -5.00000e+00  6.12323e-16  8.00000e+00
          -7.50000e+00  9.18485e-16  8.00000e+00
          -1.00000e+01  1.22465e-15  8.00000e+00
          -0.00000e+00  0.00000e+00  1.00000e+01
          -2.50000e+00  3.06162e-16  1.00000e+01
          -5.00000e+00  6.12323e-16  1.00000e+01
          -7.50000e+00  9.18485e-16  1.00000e+01
          -1.00000e+01  1.22465e-15  1.00000e+01
          -0.00000e+00 -0.00000e+00  0.00000e+00
          -4.59243e-16 -2.50000e+00  0.00000e+00
          -9.18485e-16 -5.00000e+00  0.00000e+00
          -1.37773e-15 -7.50000e+00  0.00000e+00
          -1.83697e-15 -1.00000e+01  0.00000e+00
          -0.00000e+00 -0.00000e+00  2.00000e+00
          -4.59243e-16 -2.50000e+00  2.00000e+00
          -9.18485e-16 -5.00000e+00  2.00000e+00
          -1.37773e-15 -7.50000e+00  2.00000e+00
          -1.83697e-15 -1.00000e+01  2.00000e+00
          -0.00000e+00 -0.00000e+00  4.00000e+00
          -4.59243e-16 -2.50000e+00  4.00000e+00
          -9.18485e-16 -5.00000e+00  4.00000e+00
          -1.37773e-15 -7.50000e+00  4.00000e+00
          -1.83697e-15 -1.00000e+01  4.00000e+00
          -0.00000e+00 -0.00000e+00  6.00000e+00
          -4.59243e-16 -2.50000e+00  6.00000e+00
          -9.18485e-16 -5.00000e+00  6.00000e+00
          -1.37773e-15 -7.50000e+00  6.00000e+00
          -1.83697e-15 -1.00000e+01  6.00000e+00
          -0.00000e+00 -0.00000e+00  8.00000e+00
          -4.59243e-16 -2.50000e+00  8.00000e+00
          -9.18485e-16 -5.00000e+00  8.00000e+00
          -1.37773e-15 -7.50000e+00  8.00000e+00
          -1.83697e-15 -1.00000e+01  8.00000e+00
          -0.00000e+00 -0.00000e+00  1.00000e+01
          -4.59243e-16 -2.50000e+00  1.00000e+01
          -9.18485e-16 -5.00000e+00  1.00000e+01
          -1.37773e-15 -7.50000e+00  1.00000e+01
          -1.83697e-15 -1.00000e+01  1.00000e+01
           0.00000e+00 -0.00000e+00  0.00000e+00
           2.50000e+00 -6.12323e-16  0.00000e+00
           5.00000e+00 -1.22465e-15  0.00000e+00
           7.50000e+00 -1.83697e-15  0.00000e+00
           1.00000e+01 -2.44929e-15  0.00000e+00
           0.00000e+00 -0.00000e+00  2.00000e+00
           2.50000e+00 -6.12323e-16  2.00000e+00
           5.00000e+00 -1.22465e-15  2.00000e+00
           7.50000e+00 -1.83697e-15  2.00000e+00
           1.00000e+01 -2.44929e-15  2.00000e+00
           0.00000e+00 -0.00000e+00  4.00000e+00
           2.50000e+00 -6.12323e-16  4.00000e+00
           5.00000e+00 -1.22465e-15  4.00000e+00
           7.50000e+00 -1.83697e-15  4.00000e+00
           1.00000e+01 -2.44929e-15  4.00000e+00
           0.00000e+00 -0.00000e+00  6.00000e+00
           2.50000e+00 -6.12323e-16  6.00000e+00
           5.00000e+00 -1.22465e-15  6.00000e+00
           7.50000e+00 -1.83697e-15  6.00000e+00
           1.00000e+01 -2.44929e-15  6.00000e+00
           0.00000e+00 -0.00000e+00  8.00000e+00
           2.50000e+00 -6.12323e-16  8.00000e+00
           5.00000e+00 -1.22465e-15  8.00000e+00
           7.50000e+00 -1.83697e-15  8.00000e+00
           1.00000e+01 -2.44929e-15  8.00000e+00
           0.00000e+00 -0.00000e+00  1.00000e+01
           2.50000e+00 -6.12323e-16  1.00000e+01
           5.00000e+00 -1.22465e-15  1.00000e+01
           7.50000e+00 -1.83697e-15  1.00000e+01
           1.00000e+01 -2.44929e-15  1.00000e+01
        </DataArray>
      </Points>
      <CellData Scalars="cell_scalars">
        <DataArray type="Float32" Name="Tally_Value_-1.00000e+36_lt_T[0]_lt_0.00000e+00" format="ascii">
           0.00000e+00 0.00000e+00 0.00000e+00 0.00000e+00
           0.00000e+00 0.00000e+00 0.00000e+00 0.00000e+00
           0.00000e+00 0.00000e+00 0.00000e+00 0.00000e+00
           0.00000e+00 0.00000e+00 0.00000e+00 0.00000e+00
           0.00000e+00 0.00000e+00 0.00000e+00 0.00000e+00

           0.00000e+00 0.00000e+00 0.00000e+00 0.00000e+00
           0.00000e+00 0.00000e+00 0.00000e+00 0.00000e+00
           0.00000e+00 0.00000e+00 0.00000e+00 0.00000e+00
           0.00000e+00 0.00000e+00 0.00000e+00 0.00000e+00
           0.00000e+00 0.00000e+00 0.00000e+00 0.00000e+00

           0.00000e+00 0.00000e+00 0.00000e+00 0.00000e+00
           0.00000e+00 0.00000e+00 0.00000e+00 0.00000e+00
           0.00000e+00 0.00000e+00 0.00000e+00 0.00000e+00
           0.00000e+00 0.00000e+00 0.00000e+00 0.00000e+00
           0.00000e+00 0.00000e+00 0.00000e+00 0.00000e+00

           0.00000e+00 0.00000e+00 0.00000e+00 0.00000e+00
           0.00000e+00 0.00000e+00 0.00000e+00 0.00000e+00
           0.00000e+00 0.00000e+00 0.00000e+00 0.00000e+00
           0.00000e+00 0.00000e+00 0.00000e+00 0.00000e+00
           0.00000e+00 0.00000e+00 0.00000e+00 0.00000e+00
        </DataArray>

        <DataArray type="Float32" Name="Tally_Value_0.00000e+00_lt_T[1]_lt_1.00000e+01" format="ascii">
           7.62747e-04 1.40680e-03 2.74738e-03 3.42160e-03
           5.30788e-04 1.06416e-03 2.04271e-03 2.68800e-03
           1.97728e-04 6.56557e-04 1.11202e-03 1.48715e-03
           7.52893e-06 2.36564e-04 5.26387e-04 6.27739e-04
           0.00000e+00 9.16182e-06 1.12653e-04 1.96157e-04

           0.00000e+00 0.00000e+00 0.00000e+00 0.00000e+00
           0.00000e+00 0.00000e+00 0.00000e+00 0.00000e+00
           0.00000e+00 0.00000e+00 0.00000e+00 0.00000e+00
           0.00000e+00 0.00000e+00 0.00000e+00 0.00000e+00
           0.00000e+00 0.00000e+00 0.00000e+00 0.00000e+00

           0.00000e+00 0.00000e+00 0.00000e+00 0.00000e+00
           0.00000e+00 0.00000e+00 0.00000e+00 0.00000e+00
           0.00000e+00 0.00000e+00 0.00000e+00 0.00000e+00
           0.00000e+00 0.00000e+00 0.00000e+00 0.00000e+00
           0.00000e+00 0.00000e+00 0.00000e+00 0.00000e+00

           7.80820e-04 1.42588e-03 2.74819e-03 3.50281e-03
           5.56310e-04 1.08399e-03 2.01885e-03 2.69847e-03
           2.15896e-04 7.01299e-04 1.13250e-03 1.48862e-03
           7.10331e-06 2.42297e-04 5.10349e-04 6.26697e-04
           0.00000e+00 8.74201e-06 1.05493e-04 1.97414e-04
        </DataArray>

        <DataArray type="Float32" Name="Tally_Value_1.00000e+01_lt_T[2]_lt_2.00000e+01" format="ascii">
           5.21983e-05 6.32374e-05 4.80448e-05 3.68948e-05
           3.26042e-05 5.91545e-05 5.33128e-05 4.01601e-05
           1.10528e-05 4.02808e-05 5.28270e-05 4.59631e-05
           3.00502e-07 1.42317e-05 2.95733e-05 3.42055e-05
           0.00000e+00 4.53051e-07 6.71499e-06 1.06375e-05

           0.00000e+00 0.00000e+00 0.00000e+00 0.00000e+00
           0.00000e+00 0.00000e+00 0.00000e+00 0.00000e+00
           0.00000e+00 0.00000e+00 0.00000e+00 0.00000e+00
           0.00000e+00 0.00000e+00 0.00000e+00 0.00000e+00
           0.00000e+00 0.00000e+00 0.00000e+00 0.00000e+00

           0.00000e+00 0.00000e+00 0.00000e+00 0.00000e+00
           0.00000e+00 0.00000e+00 0.00000e+00 0.00000e+00
           0.00000e+00 0.00000e+00 0.00000e+00 0.00000e+00
           0.00000e+00 0.00000e+00 0.00000e+00 0.00000e+00
           0.00000e+00 0.00000e+00 0.00000e+00 0.00000e+00

           5.72687e-05 6.90438e-05 4.98146e-05 3.56915e-05
           3.10304e-05 6.19991e-05 5.28274e-05 3.73413e-05
           1.42200e-05 4.24004e-05 5.26657e-05 4.48135e-05
           3.62359e-07 1.43493e-05 3.42745e-05 3.60350e-05
           0.00000e+00 2.13937e-07 7.24212e-06 1.25035e-05
        </DataArray>

        <DataArray type="Float32" Name="Tally_Value_T[total]" format="ascii">
           8.14945e-04 1.47004e-03 2.79543e-03 3.45850e-03
           5.63392e-04 1.12331e-03 2.09603e-03 2.72816e-03
           2.08780e-04 6.96838e-04 1.16484e-03 1.53312e-03
           7.82943e-06 2.50796e-04 5.55960e-04 6.61944e-04
           0.00000e+00 9.61487e-06 1.19368e-04 2.06794e-04

           0.00000e+00 0.00000e+00 0.00000e+00 0.00000e+00
           0.00000e+00 0.00000e+00 0.00000e+00 0.00000e+00
           0.00000e+00 0.00000e+00 0.00000e+00 0.00000e+00
           0.00000e+00 0.00000e+00 0.00000e+00 0.00000e+00
           0.00000e+00 0.00000e+00 0.00000e+00 0.00000e+00

           0.00000e+00 0.00000e+00 0.00000e+00 0.00000e+00
           0.00000e+00 0.00000e+00 0.00000e+00 0.00000e+00
           0.00000e+00 0.00000e+00 0.00000e+00 0.00000e+00
           0.00000e+00 0.00000e+00 0.00000e+00 0.00000e+00
           0.00000e+00 0.00000e+00 0.00000e+00 0.00000e+00

           8.38089e-04 1.49493e-03 2.79801e-03 3.53850e-03
           5.87341e-04 1.14599e-03 2.07167e-03 2.73581e-03
           2.30116e-04 7.43699e-04 1.18517e-03 1.53343e-03
           7.46567e-06 2.56646e-04 5.44623e-04 6.62732e-04
           0.00000e+00 8.95595e-06 1.12735e-04 2.09918e-04
        </DataArray>
        <DataArray type="Float32" Name="Tally_Error_-1.00000e+36_lt_T[0]_lt_0.00000e+00" format="ascii">
           0.00000e+00 0.00000e+00 0.00000e+00 0.00000e+00
           0.00000e+00 0.00000e+00 0.00000e+00 0.00000e+00
           0.00000e+00 0.00000e+00 0.00000e+00 0.00000e+00
           0.00000e+00 0.00000e+00 0.00000e+00 0.00000e+00
           0.00000e+00 0.00000e+00 0.00000e+00 0.00000e+00

           0.00000e+00 0.00000e+00 0.00000e+00 0.00000e+00
           0.00000e+00 0.00000e+00 0.00000e+00 0.00000e+00
           0.00000e+00 0.00000e+00 0.00000e+00 0.00000e+00
           0.00000e+00 0.00000e+00 0.00000e+00 0.00000e+00
           0.00000e+00 0.00000e+00 0.00000e+00 0.00000e+00

           0.00000e+00 0.00000e+00 0.00000e+00 0.00000e+00
           0.00000e+00 0.00000e+00 0.00000e+00 0.00000e+00
           0.00000e+00 0.00000e+00 0.00000e+00 0.00000e+00
           0.00000e+00 0.00000e+00 0.00000e+00 0.00000e+00
           0.00000e+00 0.00000e+00 0.00000e+00 0.00000e+00

           0.00000e+00 0.00000e+00 0.00000e+00 0.00000e+00
           0.00000e+00 0.00000e+00 0.00000e+00 0.00000e+00
           0.00000e+00 0.00000e+00 0.00000e+00 0.00000e+00
           0.00000e+00 0.00000e+00 0.00000e+00 0.00000e+00
           0.00000e+00 0.00000e+00 0.00000e+00 0.00000e+00
        </DataArray>

        <DataArray type="Float32" Name="Tally_Error_0.00000e+00_lt_T[1]_lt_1.00000e+01" format="ascii">
           3.14675e-02 1.62517e-02 8.90913e-03 6.58561e-03
           3.58030e-02 1.81715e-02 1.03889e-02 7.49435e-03
           4.66730e-02 2.20144e-02 1.38527e-02 1.02238e-02
           1.31167e-01 3.07646e-02 1.90431e-02 1.51306e-02
           0.00000e+00 8.08587e-02 3.15623e-02 2.35499e-02

           0.00000e+00 0.00000e+00 0.00000e+00 0.00000e+00
           0.00000e+00 0.00000e+00 0.00000e+00 0.00000e+00
           0.00000e+00 0.00000e+00 0.00000e+00 0.00000e+00
           0.00000e+00 0.00000e+00 0.00000e+00 0.00000e+00
           0.00000e+00 0.00000e+00 0.00000e+00 0.00000e+00

           0.00000e+00 0.00000e+00 0.00000e+00 0.00000e+00
           0.00000e+00 0.00000e+00 0.00000e+00 0.00000e+00
           0.00000e+00 0.00000e+00 0.00000e+00 0.00000e+00
           0.00000e+00 0.00000e+00 0.00000e+00 0.00000e+00
           0.00000e+00 0.00000e+00 0.00000e+00 0.00000e+00

           3.13751e-02 1.61035e-02 8.90431e-03 6.56365e-03
           3.50611e-02 1.79310e-02 1.04630e-02 7.50797e-03
           4.61212e-02 2.15199e-02 1.39018e-02 1.02159e-02
           1.31907e-01 3.08509e-02 1.92907e-02 1.50988e-02
           0.00000e+00 8.51834e-02 3.26167e-02 2.35496e-02
        </DataArray>

        <DataArray type="Float32" Name="Tally_Error_1.00000e+01_lt_T[2]_lt_2.00000e+01" format="ascii">
           7.99714e-02 4.24877e-02 3.87396e-02 3.81054e-02
           9.67124e-02 4.46513e-02 3.59537e-02 3.62242e-02
           1.41899e-01 5.41727e-02 3.74101e-02 3.30908e-02
           4.50078e-01 8.78608e-02 4.90449e-02 3.94979e-02
           0.00000e+00 3.92811e-01 1.00481e-01 6.72008e-02

           0.00000e+00 0.00000e+00 0.00000e+00 0.00000e+00
           0.00000e+00 0.00000e+00 0.00000e+00 0.00000e+00
           0.00000e+00 0.00000e+00 0.00000e+00 0.00000e+00
           0.00000e+00 0.00000e+00 0.00000e+00 0.00000e+00
           0.00000e+00 0.00000e+00 0.00000e+00 0.00000e+00

           0.00000e+00 0.00000e+00 0.00000e+00 0.00000e+00
           0.00000e+00 0.00000e+00 0.00000e+00 0.00000e+00
           0.00000e+00 0.00000e+00 0.00000e+00 0.00000e+00
           0.00000e+00 0.00000e+00 0.00000e+00 0.00000e+00
           0.00000e+00 0.00000e+00 0.00000e+00 0.00000e+00

           7.96711e-02 4.15762e-02 3.84999e-02 3.87919e-02
           1.01067e-01 4.41750e-02 3.73770e-02 3.70615e-02
           1.43119e-01 5.19398e-02 3.73112e-02 3.23570e-02
           4.18602e-01 8.62858e-02 4.64629e-02 3.74623e-02
           0.00000e+00 3.71820e-01 9.78329e-02 6.28902e-02
        </DataArray>

        <DataArray type="Float32" Name="Tally_Error_T[total]" format="ascii">
           3.06133e-02 1.59762e-02 8.87869e-03 6.57087e-03
           3.48303e-02 1.78093e-02 1.03216e-02 7.47185e-03
           4.55372e-02 2.15719e-02 1.36566e-02 1.01572e-02
           1.27309e-01 3.01645e-02 1.86765e-02 1.48903e-02
           0.00000e+00 7.92398e-02 3.10092e-02 2.30724e-02

           0.00000e+00 0.00000e+00 0.00000e+00 0.00000e+00
           0.00000e+00 0.00000e+00 0.00000e+00 0.00000e+00
           0.00000e+00 0.00000e+00 0.00000e+00 0.00000e+00
           0.00000e+00 0.00000e+00 0.00000e+00 0.00000e+00
           0.00000e+00 0.00000e+00 0.00000e+00 0.00000e+00

           0.00000e+00 0.00000e+00 0.00000e+00 0.00000e+00
           0.00000e+00 0.00000e+00 0.00000e+00 0.00000e+00
           0.00000e+00 0.00000e+00 0.00000e+00 0.00000e+00
           0.00000e+00 0.00000e+00 0.00000e+00 0.00000e+00
           0.00000e+00 0.00000e+00 0.00000e+00 0.00000e+00

           3.05147e-02 1.58259e-02 8.86466e-03 6.55187e-03
           3.43273e-02 1.75654e-02 1.04016e-02 7.48690e-03
           4.47737e-02 2.10770e-02 1.37235e-02 1.01449e-02
           1.27137e-01 3.02439e-02 1.88797e-02 1.48518e-02
           0.00000e+00 8.36854e-02 3.19431e-02 2.30648e-02
        </DataArray>
      </CellData>
    </Piece>
  </StructuredGrid>
</VTKFile>
