<?xml version="1.0"?>
<VTKFile type="StructuredGrid" version="0.1">
  <StructuredGrid WholeExtent="0 5 0 1 0 6">
    <Piece Extent="0 5 0 1 0 6">
      <Points>
        <DataArray type="Float32" format="ascii" NumberOfComponents="3">
           0.00000e+00  0.00000e+00 -5.00000e-01
           2.00000e+00  0.00000e+00 -5.00000e-01
           4.00000e+00  0.00000e+00 -5.00000e-01
           6.00000e+00  0.00000e+00 -5.00000e-01
           8.00000e+00  0.00000e+00 -5.00000e-01
           1.00000e+01  0.00000e+00 -5.00000e-01
           0.00000e+00  0.00000e+00  5.00000e-01
           2.00000e+00  0.00000e+00  5.00000e-01
           4.00000e+00  0.00000e+00  5.00000e-01
           6.00000e+00  0.00000e+00  5.00000e-01
           8.00000e+00  0.00000e+00  5.00000e-01
           1.00000e+01  0.00000e+00  5.00000e-01
           0.00000e+00  0.00000e+00 -5.00000e-01
           1.73205e+00  1.00000e+00 -5.00000e-01
           3.46410e+00  2.00000e+00 -5.00000e-01
           5.19615e+00  3.00000e+00 -5.00000e-01
           6.92820e+00  4.00000e+00 -5.00000e-01
           8.66025e+00  5.00000e+00 -5.00000e-01
           0.00000e+00  0.00000e+00  5.00000e-01
           1.73205e+00  1.00000e+00  5.00000e-01
           3.46410e+00  2.00000e+00  5.00000e-01
           5.19615e+00  3.00000e+00  5.00000e-01
           6.92820e+00  4.00000e+00  5.00000e-01
           8.66025e+00  5.00000e+00  5.00000e-01
           0.00000e+00  0.00000e+00 -5.00000e-01
           1.00000e+00  1.73205e+00 -5.00000e-01
           2.00000e+00  3.46410e+00 -5.00000e-01
           3.00000e+00  5.19615e+00 -5.00000e-01
           4.00000e+00  6.92820e+00 -5.00000e-01
           5.00000e+00  8.66025e+00 -5.00000e-01
           0.00000e+00  0.00000e+00  5.00000e-01
           1.00000e+00  1.73205e+00  5.00000e-01
           2.00000e+00  3.46410e+00  5.00000e-01
           3.00000e+00  5.19615e+00  5.00000e-01
           4.00000e+00  6.92820e+00  5.00000e-01
           5.00000e+00  8.66025e+00  5.00000e-01
           0.00000e+00  0.00000e+00 -5.00000e-01
           1.22465e-16  2.00000e+00 -5.00000e-01
           2.44929e-16  4.00000e+00 -5.00000e-01
           3.67394e-16  6.00000e+00 -5.00000e-01
           4.89859e-16  8.00000e+00 -5.00000e-01
           6.12323e-16  1.00000e+01 -5.00000e-01
           0.00000e+00  0.00000e+00  5.00000e-01
           1.22465e-16  2.00000e+00  5.00000e-01
           2.44929e-16  4.00000e+00  5.00000e-01
           3.67394e-16  6.00000e+00  5.00000e-01
           4.89859e-16  8.00000e+00  5.00000e-01
           6.12323e-16  1.00000e+01  5.00000e-01
          -0.00000e+00  0.00000e+00 -5.00000e-01
          -1.00000e+00  1.73205e+00 -5.00000e-01
          -2.00000e+00  3.46410e+00 -5.00000e-01
          -3.00000e+00  5.19615e+00 -5.00000e-01
          -4.00000e+00  6.92820e+00 -5.00000e-01
          -5.00000e+00  8.66025e+00 -5.00000e-01
          -0.00000e+00  0.00000e+00  5.00000e-01
          -1.00000e+00  1.73205e+00  5.00000e-01
          -2.00000e+00  3.46410e+00  5.00000e-01
          -3.00000e+00  5.19615e+00  5.00000e-01
          -4.00000e+00  6.92820e+00  5.00000e-01
          -5.00000e+00  8.66025e+00  5.00000e-01
          -0.00000e+00  0.00000e+00 -5.00000e-01
          -1.73205e+00  1.00000e+00 -5.00000e-01
          -3.46410e+00  2.00000e+00 -5.00000e-01
          -5.19615e+00  3.00000e+00 -5.00000e-01
          -6.92820e+00  4.00000e+00 -5.00000e-01
          -8.66025e+00  5.00000e+00 -5.00000e-01
          -0.00000e+00  0.00000e+00  5.00000e-01
          -1.73205e+00  1.00000e+00  5.00000e-01
          -3.46410e+00  2.00000e+00  5.00000e-01
          -5.19615e+00  3.00000e+00  5.00000e-01
          -6.92820e+00  4.00000e+00  5.00000e-01
          -8.66025e+00  5.00000e+00  5.00000e-01
          -0.00000e+00  0.00000e+00 -5.00000e-01
          -2.00000e+00  2.44929e-16 -5.00000e-01
          -4.00000e+00  4.89859e-16 -5.00000e-01
          -6.00000e+00  7.34788e-16 -5.00000e-01
          -8.00000e+00  9.79717e-16 -5.00000e-01
          -1.00000e+01  1.22465e-15 -5.00000e-01
          -0.00000e+00  0.00000e+00  5.00000e-01
          -2.00000e+00  2.44929e-16  5.00000e-01
          -4.00000e+00  4.89859e-16  5.00000e-01
          -6.00000e+00  7.34788e-16  5.00000e-01
          -8.00000e+00  9.79717e-16  5.00000e-01
          -1.00000e+01  1.22465e-15  5.00000e-01
        </DataArray>
      </Points>
      <CellData Scalars="cell_scalars">
        <DataArray type="Int32" Name="material_dominant" format="ascii">
                     2           3           4           4           4           2           3           4           4           4
                     2           3           4           4           4
                     2           3           4           4           4
                     2           3           4           4           4
                     2           3           4           4           4
          
        </DataArray>
        <DataArray type="Float32" Name="density_dominant" format="ascii">
           9.00000e+00 1.00000e+01 1.10000e+01 1.10000e+01 1.10000e+01 9.00000e+00 1.00000e+01 1.10000e+01 1.10000e+01 1.10000e+01
           9.00000e+00 1.00000e+01 1.10000e+01 1.10000e+01 1.10000e+01
           9.00000e+00 1.00000e+01 1.10000e+01 1.10000e+01 1.10000e+01
           9.00000e+00 1.00000e+01 1.10000e+01 1.10000e+01 1.10000e+01
           9.00000e+00 1.00000e+01 1.10000e+01 1.10000e+01 1.10000e+01
          
        </DataArray>
      </CellData>
    </Piece>
  </StructuredGrid>
</VTKFile>
